
    -----------------------------------------------------------------------
          Psi4: An Open-Source Ab Initio Electronic Structure Package
                               Psi4 1.9 release

                         Git: Rev {} zzzzzzz 


    D. G. A. Smith, L. A. Burns, A. C. Simmonett, R. M. Parrish,
    M. C. Schieber, R. Galvelis, P. Kraus, H. Kruse, R. Di Remigio,
    A. Alenaizan, A. M. James, S. Lehtola, J. P. Misiewicz, M. Scheurer,
    R. A. Shaw, J. B. Schriber, Y. Xie, Z. L. Glick, D. A. Sirianni,
    J. S. O'Brien, J. M. Waldrop, A. Kumar, E. G. Hohenstein,
    B. P. Pritchard, B. R. Brooks, H. F. Schaefer III, A. Yu. Sokolov,
    K. Patkowski, A. E. DePrince III, U. Bozkaya, R. A. King,
    F. A. Evangelista, J. M. Turney, T. D. Crawford, C. D. Sherrill,
    J. Chem. Phys. 152(18) 184108 (2020). https://doi.org/10.1063/5.0006002

                            Additional Code Authors
    E. T. Seidl, C. L. Janssen, E. F. Valeev, M. L. Leininger,
    J. F. Gonthier, R. M. Richard, H. R. McAlexander, M. Saitow, X. Wang,
    P. Verma, M. H. Lechner, A. Jiang, S. Behnle, A. G. Heide,
    M. F. Herbst, and D. L. Poole

             Previous Authors, Complete List of Code Contributors,
                       and Citations for Specific Modules
    https://github.com/psi4/psi4/blob/master/codemeta.json
    https://github.com/psi4/psi4/graphs/contributors
    http://psicode.org/psi4manual/master/introduction.html#citing-psifour

    -----------------------------------------------------------------------


    Psi4 started on: Monday, 26 February 2024 04:26PM

    Process ID: 51713
    Host:       pyra
    PSIDATADIR: /mnt/optane/ben/miniconda3/envs/qcmanybody/share/psi4
    Memory:     500.0 MiB
    Threads:    1
    
  ==> Input File <==

--------------------------------------------------------------------------
#! Example potential energy surface scan and CP-correction for Ne2

molecule h2o_trimer {
O      -2.76373224  -1.24377706  -0.15444566 
H      -1.12357791  -2.06227970  -0.05243799 
H      -3.80792362  -2.08705525   1.06090407 
--
O       2.46924614  -1.75437739  -0.17092884 
H       3.76368260  -2.21425403   1.00846104 
H       2.30598330   0.07098445  -0.03942473 
--
O       0.29127930   3.00875625   0.20308515 
H      -1.21253048   1.95820900   0.10303324 
H       0.10002049   4.24958115  -1.10222079 
units bohr
}

levels = {1: 'mp2/sto-3g', 2: 'b3lyp/sto-3g', 'supersystem': 'scf/sto-3g'}
set cc_type df
set df_basis_mp2 def2-qzvpp-ri

energy('', molecule=h2o_trimer, bsse_type = ['cp', 'nocp', 'vmfc'], return_total_data=True, levels=levels)

from qcportal.serialization import serialize
d = {k: v.np if isinstance(v, Matrix) else v for k,v in variables().items()}
with open("h2o_trimer_multi_ss.json", "wb") as f:
    f.write(serialize(d, 'json'))

print_variables()
--------------------------------------------------------------------------

Scratch directory: /tmp/

  //>>>>>>>>>>>>>>>>>>>>>>>>>>>>>>>>>>>//
  //  ManyBody Setup: N-Body Levels [1]//
  //<<<<<<<<<<<<<<<<<<<<<<<<<<<<<<<<<<<//

        Number of 1-body computations:     3

  //>>>>>>>>>>>>>>>>>>>>>>>>>>>>>>>>>>>//
  //  ManyBody Setup: N-Body Levels [2]//
  //<<<<<<<<<<<<<<<<<<<<<<<<<<<<<<<<<<<//

        Number of 2-body computations:     6

  //>>>>>>>>>>>>>>>>>>>>>>>>>>>>>>>>>>>>>>>>>>>>>>//
  // ManyBody Setup: N-Body Levels ['supersystem']//
  //<<<<<<<<<<<<<<<<<<<<<<<<<<<<<<<<<<<<<<<<<<<<<<//

        Number of 1-body computations:     3
        Number of 2-body computations:     3

    -----------------------------------------------------------------------
          Psi4: An Open-Source Ab Initio Electronic Structure Package
                               Psi4 1.9 release

                         Git: Rev {} zzzzzzz 


    D. G. A. Smith, L. A. Burns, A. C. Simmonett, R. M. Parrish,
    M. C. Schieber, R. Galvelis, P. Kraus, H. Kruse, R. Di Remigio,
    A. Alenaizan, A. M. James, S. Lehtola, J. P. Misiewicz, M. Scheurer,
    R. A. Shaw, J. B. Schriber, Y. Xie, Z. L. Glick, D. A. Sirianni,
    J. S. O'Brien, J. M. Waldrop, A. Kumar, E. G. Hohenstein,
    B. P. Pritchard, B. R. Brooks, H. F. Schaefer III, A. Yu. Sokolov,
    K. Patkowski, A. E. DePrince III, U. Bozkaya, R. A. King,
    F. A. Evangelista, J. M. Turney, T. D. Crawford, C. D. Sherrill,
    J. Chem. Phys. 152(18) 184108 (2020). https://doi.org/10.1063/5.0006002

                            Additional Code Authors
    E. T. Seidl, C. L. Janssen, E. F. Valeev, M. L. Leininger,
    J. F. Gonthier, R. M. Richard, H. R. McAlexander, M. Saitow, X. Wang,
    P. Verma, M. H. Lechner, A. Jiang, S. Behnle, A. G. Heide,
    M. F. Herbst, and D. L. Poole

             Previous Authors, Complete List of Code Contributors,
                       and Citations for Specific Modules
    https://github.com/psi4/psi4/blob/master/codemeta.json
    https://github.com/psi4/psi4/graphs/contributors
    http://psicode.org/psi4manual/master/introduction.html#citing-psifour

    -----------------------------------------------------------------------


    Psi4 started on: Monday, 26 February 2024 04:26PM

    Process ID: 51713
    Host:       pyra
    PSIDATADIR: /mnt/optane/ben/miniconda3/envs/qcmanybody/share/psi4
    Memory:     500.0 MiB
    Threads:    1
    
  ==> Input QCSchema <==

--------------------------------------------------------------------------
{'driver': 'energy',
 'extras': {'psiapi': True, 'wfn_qcvars_only': True},
 'id': None,
 'keywords': {'CC_TYPE': 'DF', 'DF_BASIS_MP2': 'DEF2-QZVPP-RI', 'function_kwargs': {}},
 'model': {'basis': 'sto-3g', 'method': 'mp2'},
 'molecule': {'atom_labels': ['', '', ''],
              'atomic_numbers': [8, 1, 1],
              'extras': {},
              'fix_com': True,
              'fix_orientation': True,
              'fragment_charges': [0.0],
              'fragment_multiplicities': [1],
              'fragments': [[0, 1, 2]],
              'geometry': [0.29175008601361585, 3.0071998147996597, 0.22103827073768123, -1.2120596939863841,
                           1.95665256479966, 0.12098636073768124, 0.10049127601361584, 4.2480247147996595,
                           -1.0842676692623188],
              'mass_numbers': [16, 1, 1],
              'masses': [15.99491461957, 1.00782503223, 1.00782503223],
              'molecular_charge': 0.0,
              'molecular_multiplicity': 1,
              'name': 'h2o_trimer',
              'provenance': {'creator': 'QCElemental',
                             'routine': 'qcelemental.molparse.from_string',
                             'version': '0.27.1'},
              'real': [True, True, True],
              'schema_name': 'qcschema_molecule',
              'schema_version': 2,
              'symbols': ['O', 'H', 'H'],
              'validated': True},
 'protocols': {'stdout': True},
 'provenance': {'creator': 'QCElemental', 'routine': 'qcelemental.models.results', 'version': '0.27.1'},
 'schema_name': 'qcschema_input',
 'schema_version': 1}
--------------------------------------------------------------------------

Scratch directory: /tmp/
    SCF Algorithm Type (re)set to DF.
   => Libint2 <=

    Primary   basis highest AM E, G, H:  5, 4, 3
    Auxiliary basis highest AM E, G, H:  6, 5, 4
    Onebody   basis highest AM E, G, H:  6, 5, 4
    Solid Harmonics ordering:            gaussian

*** tstart() called on pyra
*** at Mon Feb 26 16:26:22 2024

   => Loading Basis Set <=

    Name: STO-3G
    Role: ORBITAL
    Keyword: BASIS
    atoms 1   entry O          line    81 file /mnt/optane/ben/miniconda3/envs/qcmanybody/share/psi4/basis/sto-3g.gbs 
    atoms 2-3 entry H          line    19 file /mnt/optane/ben/miniconda3/envs/qcmanybody/share/psi4/basis/sto-3g.gbs 


         ---------------------------------------------------------
                                   SCF
               by Justin Turney, Rob Parrish, Andy Simmonett
                          and Daniel G. A. Smith
                              RHF Reference
                        1 Threads,    500 MiB Core
         ---------------------------------------------------------

  ==> Geometry <==

    Molecular point group: c1
    Full point group: C1

    Geometry (in Bohr), charge = 0, multiplicity = 1:

       Center              X                  Y                   Z               Mass       
    ------------   -----------------  -----------------  -----------------  -----------------
         O            0.291750086014     3.007199814800     0.221038270738    15.994914619570
         H           -1.212059693986     1.956652564800     0.120986360738     1.007825032230
         H            0.100491276014     4.248024714800    -1.084267669262     1.007825032230

  Running in c1 symmetry.

  Rotational constants: A =     16.21999  B =      0.35551  C =      0.35411 [cm^-1]
  Rotational constants: A = 486263.11601  B =  10657.90701  C =  10615.85257 [MHz]
  Nuclear repulsion =    9.116312738955253

  Charge       = 0
  Multiplicity = 1
  Electrons    = 10
  Nalpha       = 5
  Nbeta        = 5

  ==> Algorithm <==

  SCF Algorithm Type is DF.
  DIIS enabled.
  MOM disabled.
  Fractional occupation disabled.
  Guess Type is SAD.
  Energy threshold   = 1.00e-08
  Density threshold  = 1.00e-08
  Integral threshold = 1.00e-12

  ==> Primary Basis <==

  Basis Set: STO-3G
    Blend: STO-3G
    Number of shells: 5
    Number of basis functions: 7
    Number of Cartesian functions: 7
    Spherical Harmonics?: true
    Max angular momentum: 1

   => Loading Basis Set <=

    Name: (STO-3G AUX)
    Role: JKFIT
    Keyword: DF_BASIS_SCF
    atoms 1   entry O          line   318 file /mnt/optane/ben/miniconda3/envs/qcmanybody/share/psi4/basis/def2-universal-jkfit.gbs 
    atoms 2-3 entry H          line    18 file /mnt/optane/ben/miniconda3/envs/qcmanybody/share/psi4/basis/def2-universal-jkfit.gbs 

  ==> Integral Setup <==

  DFHelper Memory: AOs need 0.000 GiB; user supplied 0.366 GiB. 
  Using in-core AOs.

  ==> MemDFJK: Density-Fitted J/K Matrices <==

    J tasked:                   Yes
    K tasked:                   Yes
    wK tasked:                   No
    OpenMP threads:               1
    Memory [MiB]:               375
    Algorithm:                 Core
    Schwarz Cutoff:           1E-12
    Mask sparsity (%):       0.0000
    Fitting Condition:        1E-10

   => Auxiliary Basis Set <=

  Basis Set: (STO-3G AUX)
    Blend: DEF2-UNIVERSAL-JKFIT
    Number of shells: 37
    Number of basis functions: 113
    Number of Cartesian functions: 133
    Spherical Harmonics?: true
    Max angular momentum: 4

  Minimum eigenvalue in the overlap matrix is 3.4730300753E-01.
  Reciprocal condition number of the overlap matrix is 1.8113509098E-01.
    Using symmetric orthogonalization.

  ==> Pre-Iterations <==

  SCF Guess: Superposition of Atomic Densities via on-the-fly atomic UHF (no occupation information).

   -------------------------
    Irrep   Nso     Nmo    
   -------------------------
     A          7       7 
   -------------------------
    Total       7       7
   -------------------------

  ==> Iterations <==

                           Total Energy        Delta E     RMS |[F,P]|

   @DF-RHF iter SAD:   -74.20201476670530   -7.42020e+01   0.00000e+00 
   @DF-RHF iter   1:   -74.91358540757331   -7.11571e-01   3.55775e-02 ADIIS/DIIS
   @DF-RHF iter   2:   -74.96259246477783   -4.90071e-02   5.42254e-03 ADIIS/DIIS
   @DF-RHF iter   3:   -74.96347122716629   -8.78762e-04   1.27910e-03 ADIIS/DIIS
   @DF-RHF iter   4:   -74.96354236312604   -7.11360e-05   1.31499e-04 ADIIS/DIIS
   @DF-RHF iter   5:   -74.96354366330354   -1.30018e-06   8.95799e-06 DIIS
   @DF-RHF iter   6:   -74.96354366802744   -4.72390e-09   5.19621e-07 DIIS
   @DF-RHF iter   7:   -74.96354366804307   -1.56319e-11   5.15540e-08 DIIS
   @DF-RHF iter   8:   -74.96354366804320   -1.27898e-13   1.16832e-09 DIIS
  Energy and wave function converged.


  ==> Post-Iterations <==

    Orbital Energies [Eh]
    ---------------------

    Doubly Occupied:                                                      

       1A    -20.241634     2A     -1.263271     3A     -0.615118  
       4A     -0.449801     5A     -0.390021  

    Virtual:                                                              

       6A      0.595613     7A      0.735986  

    Final Occupation by Irrep:
              A 
    DOCC [     5 ]
    NA   [     5 ]
    NB   [     5 ]

  @DF-RHF Final Energy:   -74.96354366804320

   => Energetics <=

    Nuclear Repulsion Energy =              9.1163127389552532
    One-Electron Energy =                -122.2400220438471052
    Two-Electron Energy =                  38.1601656368486459
    Total Energy =                        -74.9635436680432008

Computation Completed


Properties will be evaluated at   0.000000,   0.000000,   0.000000 [a0]

Properties computed using the SCF density matrix


 Multipole Moments:

 ------------------------------------------------------------------------------------
     Multipole            Electronic (a.u.)      Nuclear  (a.u.)        Total (a.u.)
 ------------------------------------------------------------------------------------

 L = 1.  Multiply by 2.5417464519 to convert [e a0] to [Debye]
 Dipole X            :         -1.7341044            1.2224323           -0.5116721
 Dipole Y            :        -30.1971837           30.2622758            0.0650921
 Dipole Z            :         -1.2364442            0.8050249           -0.4314194
 Magnitude           :                                                    0.6724344

 ------------------------------------------------------------------------------------

*** tstop() called on pyra at Mon Feb 26 16:26:22 2024
Module time:
	user time   =       0.09 seconds =       0.00 minutes
	system time =       0.02 seconds =       0.00 minutes
	total time  =          0 seconds =       0.00 minutes
Total time:
	user time   =       0.09 seconds =       0.00 minutes
	system time =       0.02 seconds =       0.00 minutes
	total time  =          0 seconds =       0.00 minutes

*** tstart() called on pyra
*** at Mon Feb 26 16:26:22 2024


  //>>>>>>>>>>>>>>>>>>>>>>>>>>>>>>>>>>>//
  //               DFMP2               //
  //<<<<<<<<<<<<<<<<<<<<<<<<<<<<<<<<<<<//

   => Loading Basis Set <=

    Name: DEF2-QZVPP-RI
    Role: RIFIT
    Keyword: DF_BASIS_MP2
    atoms 1   entry O          line   406 file /mnt/optane/ben/miniconda3/envs/qcmanybody/share/psi4/basis/def2-qzvpp-ri.gbs 
    atoms 2-3 entry H          line    24 file /mnt/optane/ben/miniconda3/envs/qcmanybody/share/psi4/basis/def2-qzvpp-ri.gbs 

	 --------------------------------------------------------
	                          DF-MP2                         
	      2nd-Order Density-Fitted Moller-Plesset Theory     
	              RMP2 Wavefunction,   1 Threads             
	                                                         
	        Rob Parrish, Justin Turney, Andy Simmonett,      
	           Ed Hohenstein, and C. David Sherrill          
	 --------------------------------------------------------

   => Auxiliary Basis Set <=

  Basis Set: DEF2-QZVPP-RI
    Blend: DEF2-QZVPP-RI
    Number of shells: 65
    Number of basis functions: 253
    Number of Cartesian functions: 333
    Spherical Harmonics?: true
    Max angular momentum: 5

	 --------------------------------------------------------
	                 NBF =     7, NAUX =   253
	 --------------------------------------------------------
	   CLASS    FOCC     OCC    AOCC    AVIR     VIR    FVIR
	   PAIRS       0       5       5       2       2       0
	 --------------------------------------------------------

	-----------------------------------------------------------
	 ==================> DF-MP2 Energies <==================== 
	-----------------------------------------------------------
	 Reference Energy          =     -74.9635436680432008 [Eh]
	 Singles Energy            =      -0.0000000000000000 [Eh]
	 Same-Spin Energy          =      -0.0020471964343453 [Eh]
	 Opposite-Spin Energy      =      -0.0339818628455986 [Eh]
	 Correlation Energy        =      -0.0360290592799438 [Eh]
	 Total Energy              =     -74.9995727273231410 [Eh]
	-----------------------------------------------------------
	 ================> DF-SCS-MP2 Energies <================== 
	-----------------------------------------------------------
	 SCS Same-Spin Scale       =       0.3333333333333333 [-]
	 SCS Opposite-Spin Scale   =       1.2000000000000000 [-]
	 SCS Same-Spin Energy      =      -0.0006823988114484 [Eh]
	 SCS Opposite-Spin Energy  =      -0.0407782354147183 [Eh]
	 SCS Correlation Energy    =      -0.0414606342261667 [Eh]
	 SCS Total Energy          =     -75.0050043022693700 [Eh]
	-----------------------------------------------------------


*** tstop() called on pyra at Mon Feb 26 16:26:22 2024
Module time:
	user time   =       0.02 seconds =       0.00 minutes
	system time =       0.00 seconds =       0.00 minutes
	total time  =          0 seconds =       0.00 minutes
Total time:
	user time   =       0.11 seconds =       0.00 minutes
	system time =       0.02 seconds =       0.00 minutes
	total time  =          0 seconds =       0.00 minutes

    Psi4 stopped on: Monday, 26 February 2024 04:26PM
    Psi4 wall time for execution: 0:00:00.15


    -----------------------------------------------------------------------
          Psi4: An Open-Source Ab Initio Electronic Structure Package
                               Psi4 1.9 release

                         Git: Rev {} zzzzzzz 


    D. G. A. Smith, L. A. Burns, A. C. Simmonett, R. M. Parrish,
    M. C. Schieber, R. Galvelis, P. Kraus, H. Kruse, R. Di Remigio,
    A. Alenaizan, A. M. James, S. Lehtola, J. P. Misiewicz, M. Scheurer,
    R. A. Shaw, J. B. Schriber, Y. Xie, Z. L. Glick, D. A. Sirianni,
    J. S. O'Brien, J. M. Waldrop, A. Kumar, E. G. Hohenstein,
    B. P. Pritchard, B. R. Brooks, H. F. Schaefer III, A. Yu. Sokolov,
    K. Patkowski, A. E. DePrince III, U. Bozkaya, R. A. King,
    F. A. Evangelista, J. M. Turney, T. D. Crawford, C. D. Sherrill,
    J. Chem. Phys. 152(18) 184108 (2020). https://doi.org/10.1063/5.0006002

                            Additional Code Authors
    E. T. Seidl, C. L. Janssen, E. F. Valeev, M. L. Leininger,
    J. F. Gonthier, R. M. Richard, H. R. McAlexander, M. Saitow, X. Wang,
    P. Verma, M. H. Lechner, A. Jiang, S. Behnle, A. G. Heide,
    M. F. Herbst, and D. L. Poole

             Previous Authors, Complete List of Code Contributors,
                       and Citations for Specific Modules
    https://github.com/psi4/psi4/blob/master/codemeta.json
    https://github.com/psi4/psi4/graphs/contributors
    http://psicode.org/psi4manual/master/introduction.html#citing-psifour

    -----------------------------------------------------------------------


    Psi4 started on: Monday, 26 February 2024 04:26PM

    Process ID: 51713
    Host:       pyra
    PSIDATADIR: /mnt/optane/ben/miniconda3/envs/qcmanybody/share/psi4
    Memory:     500.0 MiB
    Threads:    1
    
  ==> Input QCSchema <==

--------------------------------------------------------------------------
{'driver': 'energy',
 'extras': {'psiapi': True, 'wfn_qcvars_only': True},
 'id': None,
 'keywords': {'CC_TYPE': 'DF', 'DF_BASIS_MP2': 'DEF2-QZVPP-RI', 'function_kwargs': {}},
 'model': {'basis': 'sto-3g', 'method': 'mp2'},
 'molecule': {'atom_labels': ['', '', ''],
              'atomic_numbers': [8, 1, 1],
              'extras': {},
              'fix_com': True,
              'fix_orientation': True,
              'fragment_charges': [0.0],
              'fragment_multiplicities': [1],
              'fragments': [[0, 1, 2]],
              'geometry': [2.469716926013616, -1.75593382520034, -0.15297571926231876, 3.764153386013616,
                           -2.2158104652003403, 1.0264141607376813, 2.306454086013616, 0.0694280147996599,
                           -0.021471609262318753],
              'mass_numbers': [16, 1, 1],
              'masses': [15.99491461957, 1.00782503223, 1.00782503223],
              'molecular_charge': 0.0,
              'molecular_multiplicity': 1,
              'name': 'h2o_trimer',
              'provenance': {'creator': 'QCElemental',
                             'routine': 'qcelemental.molparse.from_string',
                             'version': '0.27.1'},
              'real': [True, True, True],
              'schema_name': 'qcschema_molecule',
              'schema_version': 2,
              'symbols': ['O', 'H', 'H'],
              'validated': True},
 'protocols': {'stdout': True},
 'provenance': {'creator': 'QCElemental', 'routine': 'qcelemental.models.results', 'version': '0.27.1'},
 'schema_name': 'qcschema_input',
 'schema_version': 1}
--------------------------------------------------------------------------

Scratch directory: /tmp/
    SCF Algorithm Type (re)set to DF.
   => Libint2 <=

    Primary   basis highest AM E, G, H:  5, 4, 3
    Auxiliary basis highest AM E, G, H:  6, 5, 4
    Onebody   basis highest AM E, G, H:  6, 5, 4
    Solid Harmonics ordering:            gaussian

*** tstart() called on pyra
*** at Mon Feb 26 16:26:22 2024

   => Loading Basis Set <=

    Name: STO-3G
    Role: ORBITAL
    Keyword: BASIS
    atoms 1   entry O          line    81 file /mnt/optane/ben/miniconda3/envs/qcmanybody/share/psi4/basis/sto-3g.gbs 
    atoms 2-3 entry H          line    19 file /mnt/optane/ben/miniconda3/envs/qcmanybody/share/psi4/basis/sto-3g.gbs 


         ---------------------------------------------------------
                                   SCF
               by Justin Turney, Rob Parrish, Andy Simmonett
                          and Daniel G. A. Smith
                              RHF Reference
                        1 Threads,    500 MiB Core
         ---------------------------------------------------------

  ==> Geometry <==

    Molecular point group: c1
    Full point group: C1

    Geometry (in Bohr), charge = 0, multiplicity = 1:

       Center              X                  Y                   Z               Mass       
    ------------   -----------------  -----------------  -----------------  -----------------
         O            2.469716926014    -1.755933825200    -0.152975719262    15.994914619570
         H            3.764153386014    -2.215810465200     1.026414160738     1.007825032230
         H            2.306454086014     0.069428014800    -0.021471609262     1.007825032230

  Running in c1 symmetry.

  Rotational constants: A =     17.83186  B =      0.35268  C =      0.35051 [cm^-1]
  Rotational constants: A = 534585.57155  B =  10573.02943  C =  10508.02043 [MHz]
  Nuclear repulsion =    9.116778471315827

  Charge       = 0
  Multiplicity = 1
  Electrons    = 10
  Nalpha       = 5
  Nbeta        = 5

  ==> Algorithm <==

  SCF Algorithm Type is DF.
  DIIS enabled.
  MOM disabled.
  Fractional occupation disabled.
  Guess Type is SAD.
  Energy threshold   = 1.00e-08
  Density threshold  = 1.00e-08
  Integral threshold = 1.00e-12

  ==> Primary Basis <==

  Basis Set: STO-3G
    Blend: STO-3G
    Number of shells: 5
    Number of basis functions: 7
    Number of Cartesian functions: 7
    Spherical Harmonics?: true
    Max angular momentum: 1

   => Loading Basis Set <=

    Name: (STO-3G AUX)
    Role: JKFIT
    Keyword: DF_BASIS_SCF
    atoms 1   entry O          line   318 file /mnt/optane/ben/miniconda3/envs/qcmanybody/share/psi4/basis/def2-universal-jkfit.gbs 
    atoms 2-3 entry H          line    18 file /mnt/optane/ben/miniconda3/envs/qcmanybody/share/psi4/basis/def2-universal-jkfit.gbs 

  ==> Integral Setup <==

  DFHelper Memory: AOs need 0.000 GiB; user supplied 0.366 GiB. 
  Using in-core AOs.

  ==> MemDFJK: Density-Fitted J/K Matrices <==

    J tasked:                   Yes
    K tasked:                   Yes
    wK tasked:                   No
    OpenMP threads:               1
    Memory [MiB]:               375
    Algorithm:                 Core
    Schwarz Cutoff:           1E-12
    Mask sparsity (%):       0.0000
    Fitting Condition:        1E-10

   => Auxiliary Basis Set <=

  Basis Set: (STO-3G AUX)
    Blend: DEF2-UNIVERSAL-JKFIT
    Number of shells: 37
    Number of basis functions: 113
    Number of Cartesian functions: 133
    Spherical Harmonics?: true
    Max angular momentum: 4

  Minimum eigenvalue in the overlap matrix is 3.4724660626E-01.
  Reciprocal condition number of the overlap matrix is 1.8115562909E-01.
    Using symmetric orthogonalization.

  ==> Pre-Iterations <==

  SCF Guess: Superposition of Atomic Densities via on-the-fly atomic UHF (no occupation information).

   -------------------------
    Irrep   Nso     Nmo    
   -------------------------
     A          7       7 
   -------------------------
    Total       7       7
   -------------------------

  ==> Iterations <==

                           Total Energy        Delta E     RMS |[F,P]|

   @DF-RHF iter SAD:   -74.20212050382801   -7.42021e+01   0.00000e+00 
   @DF-RHF iter   1:   -74.91356875496140   -7.11448e-01   3.55515e-02 ADIIS/DIIS
   @DF-RHF iter   2:   -74.96249631968959   -4.89276e-02   5.41710e-03 ADIIS/DIIS
   @DF-RHF iter   3:   -74.96337501459180   -8.78695e-04   1.28057e-03 ADIIS/DIIS
   @DF-RHF iter   4:   -74.96344646682041   -7.14522e-05   1.32519e-04 ADIIS/DIIS
   @DF-RHF iter   5:   -74.96344778826301   -1.32144e-06   8.94028e-06 DIIS
   @DF-RHF iter   6:   -74.96344779296989   -4.70688e-09   5.23764e-07 DIIS
   @DF-RHF iter   7:   -74.96344779298565   -1.57598e-11   5.35687e-08 DIIS
   @DF-RHF iter   8:   -74.96344779298590   -2.55795e-13   1.19511e-09 DIIS
  Energy and wave function converged.


  ==> Post-Iterations <==

    Orbital Energies [Eh]
    ---------------------

    Doubly Occupied:                                                      

       1A    -20.241351     2A     -1.263093     3A     -0.615459  
       4A     -0.449355     5A     -0.389879  

    Virtual:                                                              

       6A      0.595326     7A      0.736674  

    Final Occupation by Irrep:
              A 
    DOCC [     5 ]
    NA   [     5 ]
    NB   [     5 ]

  @DF-RHF Final Energy:   -74.96344779298590

   => Energetics <=

    Nuclear Repulsion Energy =              9.1167784713158273
    One-Electron Energy =                -122.2421812568652513
    Two-Electron Energy =                  38.1619549925635155
    Total Energy =                        -74.9634477929859031

Computation Completed


Properties will be evaluated at   0.000000,   0.000000,   0.000000 [a0]

Properties computed using the SCF density matrix


 Multipole Moments:

 ------------------------------------------------------------------------------------
     Multipole            Electronic (a.u.)      Nuclear  (a.u.)        Total (a.u.)
 ------------------------------------------------------------------------------------

 L = 1.  Multiply by 2.5417464519 to convert [e a0] to [Debye]
 Dipole X            :        -25.4788722           25.8283429            0.3494707
 Dipole Y            :         16.6026513          -16.1938531            0.4087983
 Dipole Z            :          0.6217864           -0.2188632            0.4029232
 Magnitude           :                                                    0.6720066

 ------------------------------------------------------------------------------------

*** tstop() called on pyra at Mon Feb 26 16:26:22 2024
Module time:
	user time   =       0.07 seconds =       0.00 minutes
	system time =       0.01 seconds =       0.00 minutes
	total time  =          0 seconds =       0.00 minutes
Total time:
	user time   =       0.20 seconds =       0.00 minutes
	system time =       0.03 seconds =       0.00 minutes
	total time  =          0 seconds =       0.00 minutes

*** tstart() called on pyra
*** at Mon Feb 26 16:26:22 2024


  //>>>>>>>>>>>>>>>>>>>>>>>>>>>>>>>>>>>//
  //               DFMP2               //
  //<<<<<<<<<<<<<<<<<<<<<<<<<<<<<<<<<<<//

   => Loading Basis Set <=

    Name: DEF2-QZVPP-RI
    Role: RIFIT
    Keyword: DF_BASIS_MP2
    atoms 1   entry O          line   406 file /mnt/optane/ben/miniconda3/envs/qcmanybody/share/psi4/basis/def2-qzvpp-ri.gbs 
    atoms 2-3 entry H          line    24 file /mnt/optane/ben/miniconda3/envs/qcmanybody/share/psi4/basis/def2-qzvpp-ri.gbs 

	 --------------------------------------------------------
	                          DF-MP2                         
	      2nd-Order Density-Fitted Moller-Plesset Theory     
	              RMP2 Wavefunction,   1 Threads             
	                                                         
	        Rob Parrish, Justin Turney, Andy Simmonett,      
	           Ed Hohenstein, and C. David Sherrill          
	 --------------------------------------------------------

   => Auxiliary Basis Set <=

  Basis Set: DEF2-QZVPP-RI
    Blend: DEF2-QZVPP-RI
    Number of shells: 65
    Number of basis functions: 253
    Number of Cartesian functions: 333
    Spherical Harmonics?: true
    Max angular momentum: 5

	 --------------------------------------------------------
	                 NBF =     7, NAUX =   253
	 --------------------------------------------------------
	   CLASS    FOCC     OCC    AOCC    AVIR     VIR    FVIR
	   PAIRS       0       5       5       2       2       0
	 --------------------------------------------------------

	-----------------------------------------------------------
	 ==================> DF-MP2 Energies <==================== 
	-----------------------------------------------------------
	 Reference Energy          =     -74.9634477929859031 [Eh]
	 Singles Energy            =      -0.0000000000000000 [Eh]
	 Same-Spin Energy          =      -0.0020411534994253 [Eh]
	 Opposite-Spin Energy      =      -0.0339534664134676 [Eh]
	 Correlation Energy        =      -0.0359946199128929 [Eh]
	 Total Energy              =     -74.9994424128988015 [Eh]
	-----------------------------------------------------------
	 ================> DF-SCS-MP2 Energies <================== 
	-----------------------------------------------------------
	 SCS Same-Spin Scale       =       0.3333333333333333 [-]
	 SCS Opposite-Spin Scale   =       1.2000000000000000 [-]
	 SCS Same-Spin Energy      =      -0.0006803844998084 [Eh]
	 SCS Opposite-Spin Energy  =      -0.0407441596961612 [Eh]
	 SCS Correlation Energy    =      -0.0414245441959696 [Eh]
	 SCS Total Energy          =     -75.0048723371818795 [Eh]
	-----------------------------------------------------------


*** tstop() called on pyra at Mon Feb 26 16:26:22 2024
Module time:
	user time   =       0.01 seconds =       0.00 minutes
	system time =       0.00 seconds =       0.00 minutes
	total time  =          0 seconds =       0.00 minutes
Total time:
	user time   =       0.21 seconds =       0.00 minutes
	system time =       0.03 seconds =       0.00 minutes
	total time  =          0 seconds =       0.00 minutes

    Psi4 stopped on: Monday, 26 February 2024 04:26PM
    Psi4 wall time for execution: 0:00:00.10


    -----------------------------------------------------------------------
          Psi4: An Open-Source Ab Initio Electronic Structure Package
                               Psi4 1.9 release

                         Git: Rev {} zzzzzzz 


    D. G. A. Smith, L. A. Burns, A. C. Simmonett, R. M. Parrish,
    M. C. Schieber, R. Galvelis, P. Kraus, H. Kruse, R. Di Remigio,
    A. Alenaizan, A. M. James, S. Lehtola, J. P. Misiewicz, M. Scheurer,
    R. A. Shaw, J. B. Schriber, Y. Xie, Z. L. Glick, D. A. Sirianni,
    J. S. O'Brien, J. M. Waldrop, A. Kumar, E. G. Hohenstein,
    B. P. Pritchard, B. R. Brooks, H. F. Schaefer III, A. Yu. Sokolov,
    K. Patkowski, A. E. DePrince III, U. Bozkaya, R. A. King,
    F. A. Evangelista, J. M. Turney, T. D. Crawford, C. D. Sherrill,
    J. Chem. Phys. 152(18) 184108 (2020). https://doi.org/10.1063/5.0006002

                            Additional Code Authors
    E. T. Seidl, C. L. Janssen, E. F. Valeev, M. L. Leininger,
    J. F. Gonthier, R. M. Richard, H. R. McAlexander, M. Saitow, X. Wang,
    P. Verma, M. H. Lechner, A. Jiang, S. Behnle, A. G. Heide,
    M. F. Herbst, and D. L. Poole

             Previous Authors, Complete List of Code Contributors,
                       and Citations for Specific Modules
    https://github.com/psi4/psi4/blob/master/codemeta.json
    https://github.com/psi4/psi4/graphs/contributors
    http://psicode.org/psi4manual/master/introduction.html#citing-psifour

    -----------------------------------------------------------------------


    Psi4 started on: Monday, 26 February 2024 04:26PM

    Process ID: 51713
    Host:       pyra
    PSIDATADIR: /mnt/optane/ben/miniconda3/envs/qcmanybody/share/psi4
    Memory:     500.0 MiB
    Threads:    1
    
  ==> Input QCSchema <==

--------------------------------------------------------------------------
{'driver': 'energy',
 'extras': {'psiapi': True, 'wfn_qcvars_only': True},
 'id': None,
 'keywords': {'CC_TYPE': 'DF', 'DF_BASIS_MP2': 'DEF2-QZVPP-RI', 'function_kwargs': {}},
 'model': {'basis': 'sto-3g', 'method': 'mp2'},
 'molecule': {'atom_labels': ['', '', ''],
              'atomic_numbers': [8, 1, 1],
              'extras': {},
              'fix_com': True,
              'fix_orientation': True,
              'fragment_charges': [0.0],
              'fragment_multiplicities': [1],
              'fragments': [[0, 1, 2]],
              'geometry': [-2.763261453986384, -1.24533349520034, -0.13649253926231877, -1.1231071239863841,
                           -2.06383613520034, -0.03448486926231875, -3.807452833986384, -2.0886116852003402,
                           1.0788571907376814],
              'mass_numbers': [16, 1, 1],
              'masses': [15.99491461957, 1.00782503223, 1.00782503223],
              'molecular_charge': 0.0,
              'molecular_multiplicity': 1,
              'name': 'h2o_trimer',
              'provenance': {'creator': 'QCElemental',
                             'routine': 'qcelemental.molparse.from_string',
                             'version': '0.27.1'},
              'real': [True, True, True],
              'schema_name': 'qcschema_molecule',
              'schema_version': 2,
              'symbols': ['O', 'H', 'H'],
              'validated': True},
 'protocols': {'stdout': True},
 'provenance': {'creator': 'QCElemental', 'routine': 'qcelemental.models.results', 'version': '0.27.1'},
 'schema_name': 'qcschema_input',
 'schema_version': 1}
--------------------------------------------------------------------------

Scratch directory: /tmp/
    SCF Algorithm Type (re)set to DF.
   => Libint2 <=

    Primary   basis highest AM E, G, H:  5, 4, 3
    Auxiliary basis highest AM E, G, H:  6, 5, 4
    Onebody   basis highest AM E, G, H:  6, 5, 4
    Solid Harmonics ordering:            gaussian

*** tstart() called on pyra
*** at Mon Feb 26 16:26:22 2024

   => Loading Basis Set <=

    Name: STO-3G
    Role: ORBITAL
    Keyword: BASIS
    atoms 1   entry O          line    81 file /mnt/optane/ben/miniconda3/envs/qcmanybody/share/psi4/basis/sto-3g.gbs 
    atoms 2-3 entry H          line    19 file /mnt/optane/ben/miniconda3/envs/qcmanybody/share/psi4/basis/sto-3g.gbs 


         ---------------------------------------------------------
                                   SCF
               by Justin Turney, Rob Parrish, Andy Simmonett
                          and Daniel G. A. Smith
                              RHF Reference
                        1 Threads,    500 MiB Core
         ---------------------------------------------------------

  ==> Geometry <==

    Molecular point group: c1
    Full point group: C1

    Geometry (in Bohr), charge = 0, multiplicity = 1:

       Center              X                  Y                   Z               Mass       
    ------------   -----------------  -----------------  -----------------  -----------------
         O           -2.763261453986    -1.245333495200    -0.136492539262    15.994914619570
         H           -1.123107123986    -2.063836135200    -0.034484869262     1.007825032230
         H           -3.807452833986    -2.088611685200     1.078857190738     1.007825032230

  Running in c1 symmetry.

  Rotational constants: A =     17.22658  B =      0.35254  C =      0.35060 [cm^-1]
  Rotational constants: A = 516439.84588  B =  10569.00629  C =  10510.60524 [MHz]
  Nuclear repulsion =    9.119928278805013

  Charge       = 0
  Multiplicity = 1
  Electrons    = 10
  Nalpha       = 5
  Nbeta        = 5

  ==> Algorithm <==

  SCF Algorithm Type is DF.
  DIIS enabled.
  MOM disabled.
  Fractional occupation disabled.
  Guess Type is SAD.
  Energy threshold   = 1.00e-08
  Density threshold  = 1.00e-08
  Integral threshold = 1.00e-12

  ==> Primary Basis <==

  Basis Set: STO-3G
    Blend: STO-3G
    Number of shells: 5
    Number of basis functions: 7
    Number of Cartesian functions: 7
    Spherical Harmonics?: true
    Max angular momentum: 1

   => Loading Basis Set <=

    Name: (STO-3G AUX)
    Role: JKFIT
    Keyword: DF_BASIS_SCF
    atoms 1   entry O          line   318 file /mnt/optane/ben/miniconda3/envs/qcmanybody/share/psi4/basis/def2-universal-jkfit.gbs 
    atoms 2-3 entry H          line    18 file /mnt/optane/ben/miniconda3/envs/qcmanybody/share/psi4/basis/def2-universal-jkfit.gbs 

  ==> Integral Setup <==

  DFHelper Memory: AOs need 0.000 GiB; user supplied 0.366 GiB. 
  Using in-core AOs.

  ==> MemDFJK: Density-Fitted J/K Matrices <==

    J tasked:                   Yes
    K tasked:                   Yes
    wK tasked:                   No
    OpenMP threads:               1
    Memory [MiB]:               375
    Algorithm:                 Core
    Schwarz Cutoff:           1E-12
    Mask sparsity (%):       0.0000
    Fitting Condition:        1E-10

   => Auxiliary Basis Set <=

  Basis Set: (STO-3G AUX)
    Blend: DEF2-UNIVERSAL-JKFIT
    Number of shells: 37
    Number of basis functions: 113
    Number of Cartesian functions: 133
    Spherical Harmonics?: true
    Max angular momentum: 4

  Minimum eigenvalue in the overlap matrix is 3.4706319112E-01.
  Reciprocal condition number of the overlap matrix is 1.8103780232E-01.
    Using symmetric orthogonalization.

  ==> Pre-Iterations <==

  SCF Guess: Superposition of Atomic Densities via on-the-fly atomic UHF (no occupation information).

   -------------------------
    Irrep   Nso     Nmo    
   -------------------------
     A          7       7 
   -------------------------
    Total       7       7
   -------------------------

  ==> Iterations <==

                           Total Energy        Delta E     RMS |[F,P]|

   @DF-RHF iter SAD:   -74.20292818616862   -7.42029e+01   0.00000e+00 
   @DF-RHF iter   1:   -74.91358954105664   -7.10661e-01   3.55337e-02 ADIIS/DIIS
   @DF-RHF iter   2:   -74.96245166050954   -4.88621e-02   5.41141e-03 ADIIS/DIIS
   @DF-RHF iter   3:   -74.96332927541215   -8.77615e-04   1.28048e-03 ADIIS/DIIS
   @DF-RHF iter   4:   -74.96340075172334   -7.14763e-05   1.32778e-04 ADIIS/DIIS
   @DF-RHF iter   5:   -74.96340207808483   -1.32636e-06   8.90282e-06 DIIS
   @DF-RHF iter   6:   -74.96340208274736   -4.66254e-09   5.25930e-07 DIIS
   @DF-RHF iter   7:   -74.96340208276339   -1.60298e-11   4.97018e-08 DIIS
   @DF-RHF iter   8:   -74.96340208276358   -1.84741e-13   1.17495e-09 DIIS
  Energy and wave function converged.


  ==> Post-Iterations <==

    Orbital Energies [Eh]
    ---------------------

    Doubly Occupied:                                                      

       1A    -20.241218     2A     -1.263189     3A     -0.615741  
       4A     -0.449250     5A     -0.389851  

    Virtual:                                                              

       6A      0.595605     7A      0.737218  

    Final Occupation by Irrep:
              A 
    DOCC [     5 ]
    NA   [     5 ]
    NB   [     5 ]

  @DF-RHF Final Energy:   -74.96340208276358

   => Energetics <=

    Nuclear Repulsion Energy =              9.1199282788050127
    One-Electron Energy =                -122.2481627942464257
    Two-Electron Energy =                  38.1648324326778408
    Total Energy =                        -74.9634020827635794

Computation Completed


Properties will be evaluated at   0.000000,   0.000000,   0.000000 [a0]

Properties computed using the SCF density matrix


 Multipole Moments:

 ------------------------------------------------------------------------------------
     Multipole            Electronic (a.u.)      Nuclear  (a.u.)        Total (a.u.)
 ------------------------------------------------------------------------------------

 L = 1.  Multiply by 2.5417464519 to convert [e a0] to [Debye]
 Dipole X            :         27.2103446          -27.0366516            0.1736931
 Dipole Y            :         13.6080029          -14.1151158           -0.5071129
 Dipole Z            :          0.4528945           -0.0475680            0.4053265
 Magnitude           :                                                    0.6720285

 ------------------------------------------------------------------------------------

*** tstop() called on pyra at Mon Feb 26 16:26:22 2024
Module time:
	user time   =       0.07 seconds =       0.00 minutes
	system time =       0.00 seconds =       0.00 minutes
	total time  =          0 seconds =       0.00 minutes
Total time:
	user time   =       0.30 seconds =       0.01 minutes
	system time =       0.03 seconds =       0.00 minutes
	total time  =          0 seconds =       0.00 minutes

*** tstart() called on pyra
*** at Mon Feb 26 16:26:22 2024


  //>>>>>>>>>>>>>>>>>>>>>>>>>>>>>>>>>>>//
  //               DFMP2               //
  //<<<<<<<<<<<<<<<<<<<<<<<<<<<<<<<<<<<//

   => Loading Basis Set <=

    Name: DEF2-QZVPP-RI
    Role: RIFIT
    Keyword: DF_BASIS_MP2
    atoms 1   entry O          line   406 file /mnt/optane/ben/miniconda3/envs/qcmanybody/share/psi4/basis/def2-qzvpp-ri.gbs 
    atoms 2-3 entry H          line    24 file /mnt/optane/ben/miniconda3/envs/qcmanybody/share/psi4/basis/def2-qzvpp-ri.gbs 

	 --------------------------------------------------------
	                          DF-MP2                         
	      2nd-Order Density-Fitted Moller-Plesset Theory     
	              RMP2 Wavefunction,   1 Threads             
	                                                         
	        Rob Parrish, Justin Turney, Andy Simmonett,      
	           Ed Hohenstein, and C. David Sherrill          
	 --------------------------------------------------------

   => Auxiliary Basis Set <=

  Basis Set: DEF2-QZVPP-RI
    Blend: DEF2-QZVPP-RI
    Number of shells: 65
    Number of basis functions: 253
    Number of Cartesian functions: 333
    Spherical Harmonics?: true
    Max angular momentum: 5

	 --------------------------------------------------------
	                 NBF =     7, NAUX =   253
	 --------------------------------------------------------
	   CLASS    FOCC     OCC    AOCC    AVIR     VIR    FVIR
	   PAIRS       0       5       5       2       2       0
	 --------------------------------------------------------

	-----------------------------------------------------------
	 ==================> DF-MP2 Energies <==================== 
	-----------------------------------------------------------
	 Reference Energy          =     -74.9634020827635794 [Eh]
	 Singles Energy            =      -0.0000000000000000 [Eh]
	 Same-Spin Energy          =      -0.0020372547297324 [Eh]
	 Opposite-Spin Energy      =      -0.0339190274834680 [Eh]
	 Correlation Energy        =      -0.0359562822132004 [Eh]
	 Total Energy              =     -74.9993583649767857 [Eh]
	-----------------------------------------------------------
	 ================> DF-SCS-MP2 Energies <================== 
	-----------------------------------------------------------
	 SCS Same-Spin Scale       =       0.3333333333333333 [-]
	 SCS Opposite-Spin Scale   =       1.2000000000000000 [-]
	 SCS Same-Spin Energy      =      -0.0006790849099108 [Eh]
	 SCS Opposite-Spin Energy  =      -0.0407028329801616 [Eh]
	 SCS Correlation Energy    =      -0.0413819178900724 [Eh]
	 SCS Total Energy          =     -75.0047840006536575 [Eh]
	-----------------------------------------------------------


*** tstop() called on pyra at Mon Feb 26 16:26:22 2024
Module time:
	user time   =       0.02 seconds =       0.00 minutes
	system time =       0.00 seconds =       0.00 minutes
	total time  =          0 seconds =       0.00 minutes
Total time:
	user time   =       0.32 seconds =       0.01 minutes
	system time =       0.03 seconds =       0.00 minutes
	total time  =          0 seconds =       0.00 minutes

    Psi4 stopped on: Monday, 26 February 2024 04:26PM
    Psi4 wall time for execution: 0:00:00.10


    -----------------------------------------------------------------------
          Psi4: An Open-Source Ab Initio Electronic Structure Package
                               Psi4 1.9 release

                         Git: Rev {} zzzzzzz 


    D. G. A. Smith, L. A. Burns, A. C. Simmonett, R. M. Parrish,
    M. C. Schieber, R. Galvelis, P. Kraus, H. Kruse, R. Di Remigio,
    A. Alenaizan, A. M. James, S. Lehtola, J. P. Misiewicz, M. Scheurer,
    R. A. Shaw, J. B. Schriber, Y. Xie, Z. L. Glick, D. A. Sirianni,
    J. S. O'Brien, J. M. Waldrop, A. Kumar, E. G. Hohenstein,
    B. P. Pritchard, B. R. Brooks, H. F. Schaefer III, A. Yu. Sokolov,
    K. Patkowski, A. E. DePrince III, U. Bozkaya, R. A. King,
    F. A. Evangelista, J. M. Turney, T. D. Crawford, C. D. Sherrill,
    J. Chem. Phys. 152(18) 184108 (2020). https://doi.org/10.1063/5.0006002

                            Additional Code Authors
    E. T. Seidl, C. L. Janssen, E. F. Valeev, M. L. Leininger,
    J. F. Gonthier, R. M. Richard, H. R. McAlexander, M. Saitow, X. Wang,
    P. Verma, M. H. Lechner, A. Jiang, S. Behnle, A. G. Heide,
    M. F. Herbst, and D. L. Poole

             Previous Authors, Complete List of Code Contributors,
                       and Citations for Specific Modules
    https://github.com/psi4/psi4/blob/master/codemeta.json
    https://github.com/psi4/psi4/graphs/contributors
    http://psicode.org/psi4manual/master/introduction.html#citing-psifour

    -----------------------------------------------------------------------


    Psi4 started on: Monday, 26 February 2024 04:26PM

    Process ID: 51713
    Host:       pyra
    PSIDATADIR: /mnt/optane/ben/miniconda3/envs/qcmanybody/share/psi4
    Memory:     500.0 MiB
    Threads:    1
    
  ==> Input QCSchema <==

--------------------------------------------------------------------------
{'driver': 'energy',
 'extras': {'psiapi': True, 'wfn_qcvars_only': True},
 'id': None,
 'keywords': {'CC_TYPE': 'DF', 'DF_BASIS_MP2': 'DEF2-QZVPP-RI', 'function_kwargs': {}},
 'model': {'basis': 'sto-3g', 'method': 'b3lyp'},
 'molecule': {'atom_labels': ['', '', '', '', '', ''],
              'atomic_numbers': [8, 1, 1, 8, 1, 1],
              'extras': {},
              'fix_com': True,
              'fix_orientation': True,
              'fragment_charges': [0.0, 0.0],
              'fragment_multiplicities': [1, 1],
              'fragments': [[0, 1, 2], [3, 4, 5]],
              'geometry': [2.469716926013616, -1.75593382520034, -0.15297571926231876, 3.764153386013616,
                           -2.2158104652003403, 1.0264141607376813, 2.306454086013616, 0.0694280147996599,
                           -0.021471609262318753, 0.29175008601361585, 3.0071998147996597, 0.22103827073768123,
                           -1.2120596939863841, 1.95665256479966, 0.12098636073768124, 0.10049127601361584,
                           4.2480247147996595, -1.0842676692623188],
              'mass_numbers': [16, 1, 1, 16, 1, 1],
              'masses': [15.99491461957, 1.00782503223, 1.00782503223, 15.99491461957, 1.00782503223, 1.00782503223],
              'molecular_charge': 0.0,
              'molecular_multiplicity': 1,
              'name': 'h2o_trimer',
              'provenance': {'creator': 'QCElemental',
                             'routine': 'qcelemental.molparse.from_string',
                             'version': '0.27.1'},
              'real': [False, False, False, True, True, True],
              'schema_name': 'qcschema_molecule',
              'schema_version': 2,
              'symbols': ['O', 'H', 'H', 'O', 'H', 'H'],
              'validated': True},
 'protocols': {'stdout': True},
 'provenance': {'creator': 'QCElemental', 'routine': 'qcelemental.models.results', 'version': '0.27.1'},
 'schema_name': 'qcschema_input',
 'schema_version': 1}
--------------------------------------------------------------------------

Scratch directory: /tmp/
   => Libint2 <=

    Primary   basis highest AM E, G, H:  5, 4, 3
    Auxiliary basis highest AM E, G, H:  6, 5, 4
    Onebody   basis highest AM E, G, H:  6, 5, 4
    Solid Harmonics ordering:            gaussian

*** tstart() called on pyra
*** at Mon Feb 26 16:26:22 2024

   => Loading Basis Set <=

    Name: STO-3G
    Role: ORBITAL
    Keyword: BASIS
    atoms 1, 4     entry O          line    81 file /mnt/optane/ben/miniconda3/envs/qcmanybody/share/psi4/basis/sto-3g.gbs 
    atoms 2-3, 5-6 entry H          line    19 file /mnt/optane/ben/miniconda3/envs/qcmanybody/share/psi4/basis/sto-3g.gbs 


         ---------------------------------------------------------
                                   SCF
               by Justin Turney, Rob Parrish, Andy Simmonett
                          and Daniel G. A. Smith
                              RKS Reference
                        1 Threads,    500 MiB Core
         ---------------------------------------------------------

  ==> Geometry <==

    Molecular point group: c1
    Full point group: C1

    Geometry (in Bohr), charge = 0, multiplicity = 1:

       Center              X                  Y                   Z               Mass       
    ------------   -----------------  -----------------  -----------------  -----------------
      Gh(O)           2.469716926014    -1.755933825200    -0.152975719262    15.994914619570
      Gh(H)           3.764153386014    -2.215810465200     1.026414160738     1.007825032230
      Gh(H)           2.306454086014     0.069428014800    -0.021471609262     1.007825032230
         O            0.291750086014     3.007199814800     0.221038270738    15.994914619570
         H           -1.212059693986     1.956652564800     0.120986360738     1.007825032230
         H            0.100491276014     4.248024714800    -1.084267669262     1.007825032230

  Running in c1 symmetry.

  Rotational constants: A =      0.66182  B =      0.23463  C =      0.17636 [cm^-1]
  Rotational constants: A =  19840.76254  B =   7034.17541  C =   5287.25055 [MHz]
  Nuclear repulsion =    9.116312738955253

  Charge       = 0
  Multiplicity = 1
  Electrons    = 10
  Nalpha       = 5
  Nbeta        = 5

  ==> Algorithm <==

  SCF Algorithm Type is DF.
  DIIS enabled.
  MOM disabled.
  Fractional occupation disabled.
  Guess Type is SAD.
  Energy threshold   = 1.00e-06
  Density threshold  = 1.00e-06
  Integral threshold = 1.00e-12

  ==> Primary Basis <==

  Basis Set: STO-3G
    Blend: STO-3G
    Number of shells: 10
    Number of basis functions: 14
    Number of Cartesian functions: 14
    Spherical Harmonics?: true
    Max angular momentum: 1

  ==> DFT Potential <==

   => LibXC <=

    Version 6.2.2
    S. Lehtola, C. Steigemann, M. J.T. Oliveira, and M. A.L. Marques.,  SoftwareX 7, 15 (2018) (10.1016/j.softx.2017.11.002)

   => Composite Functional: B3LYP <= 

    B3LYP Hyb-GGA Exchange-Correlation Functional

    P. J. Stephens, F. J. Devlin, C. F. Chabalowski, and M. J. Frisch.,  J. Phys. Chem. 98, 11623 (1994) (10.1021/j100096a001)

    Deriv               =              1
    GGA                 =           TRUE
    Meta                =          FALSE

    Exchange Hybrid     =           TRUE
    MP2 Hybrid          =          FALSE

   => Exchange Functionals <=

    0.0800   Slater exchange
    0.7200         Becke 88

   => Exact (HF) Exchange <=

    0.2000               HF 

   => Correlation Functionals <=

    0.1900   Vosko, Wilk & Nusair (VWN5_RPA)
    0.8100   Lee, Yang & Parr

   => LibXC Density Thresholds  <==

    XC_HYB_GGA_XC_B3LYP:  1.00E-15 

   => Molecular Quadrature <=

    Radial Scheme          =       TREUTLER
    Pruning Scheme         =           NONE
    Nuclear Scheme         =       TREUTLER

    Blocking Scheme        =         OCTREE
    BS radius alpha        =              1
    Pruning alpha          =              1
    Radial Points          =             75
    Spherical Points       =            302
    Total Points           =         130929
    Total Blocks           =           1044
    Max Points             =            256
    Max Functions          =             13
    Weights Tolerance      =       1.00E-15

   => Loading Basis Set <=

    Name: (STO-3G AUX)
    Role: JKFIT
    Keyword: DF_BASIS_SCF
    atoms 1, 4     entry O          line   318 file /mnt/optane/ben/miniconda3/envs/qcmanybody/share/psi4/basis/def2-universal-jkfit.gbs 
    atoms 2-3, 5-6 entry H          line    18 file /mnt/optane/ben/miniconda3/envs/qcmanybody/share/psi4/basis/def2-universal-jkfit.gbs 

  ==> Integral Setup <==

  DFHelper Memory: AOs need 0.001 GiB; user supplied 0.317 GiB. 
  Using in-core AOs.

  ==> MemDFJK: Density-Fitted J/K Matrices <==

    J tasked:                   Yes
    K tasked:                   Yes
    wK tasked:                   No
    OpenMP threads:               1
    Memory [MiB]:               324
    Algorithm:                 Core
    Schwarz Cutoff:           1E-12
    Mask sparsity (%):       1.0204
    Fitting Condition:        1E-10

   => Auxiliary Basis Set <=

  Basis Set: (STO-3G AUX)
    Blend: DEF2-UNIVERSAL-JKFIT
    Number of shells: 74
    Number of basis functions: 226
    Number of Cartesian functions: 266
    Spherical Harmonics?: true
    Max angular momentum: 4

  Cached 100.0% of DFT collocation blocks in 0.049 [GiB].

  Minimum eigenvalue in the overlap matrix is 3.4063509175E-01.
  Reciprocal condition number of the overlap matrix is 1.7073707716E-01.
    Using symmetric orthogonalization.

  ==> Pre-Iterations <==

  SCF Guess: Superposition of Atomic Densities via on-the-fly atomic UHF (no occupation information).

   -------------------------
    Irrep   Nso     Nmo    
   -------------------------
     A         14      14 
   -------------------------
    Total      14      14
   -------------------------

  ==> Iterations <==

                           Total Energy        Delta E     RMS |[F,P]|

   @DF-RKS iter SAD:   -74.88192529750548   -7.48819e+01   0.00000e+00 
   @DF-RKS iter   1:   -75.29755405878370   -4.15629e-01   1.30151e-02 ADIIS/DIIS
   @DF-RKS iter   2:   -75.31046471278032   -1.29107e-02   9.68803e-03 ADIIS/DIIS
   @DF-RKS iter   3:   -75.32217786023030   -1.17131e-02   3.69646e-04 ADIIS/DIIS
   @DF-RKS iter   4:   -75.32219490266333   -1.70424e-05   4.79390e-06 DIIS
   @DF-RKS iter   5:   -75.32219490624789   -3.58456e-09   6.88661e-07 DIIS
  Energy and wave function converged.


  ==> Post-Iterations <==

   Electrons on quadrature grid:
      Ntotal   =    9.9999999830 ; deviation = -1.703e-08 

    Orbital Energies [Eh]
    ---------------------

    Doubly Occupied:                                                      

       1A    -18.850230     2A     -0.938224     3A     -0.448558  
       4A     -0.237282     5A     -0.153240  

    Virtual:                                                              

       6A      0.336819     7A      0.459157     8A      0.487633  
       9A      0.944301    10A      1.311011    11A      2.498369  
      12A      2.888144    13A      3.228285    14A     31.232512  

    Final Occupation by Irrep:
              A 
    DOCC [     5 ]
    NA   [     5 ]
    NB   [     5 ]

  @DF-RKS Final Energy:   -75.32219490624789

   => Energetics <=

    Nuclear Repulsion Energy =              9.1163127389552532
    One-Electron Energy =                -122.1607874953894424
    Two-Electron Energy =                  45.3388154989363770
    DFT Exchange-Correlation Energy =      -7.6165356487500935
    Empirical Dispersion Energy =           0.0000000000000000
    VV10 Nonlocal Energy =                  0.0000000000000000
    Total Energy =                        -75.3221949062479013

Computation Completed


Properties will be evaluated at   0.000000,   0.000000,   0.000000 [a0]

Properties computed using the SCF density matrix


 Multipole Moments:

 ------------------------------------------------------------------------------------
     Multipole            Electronic (a.u.)      Nuclear  (a.u.)        Total (a.u.)
 ------------------------------------------------------------------------------------

 L = 1.  Multiply by 2.5417464519 to convert [e a0] to [Debye]
 Dipole X            :         -1.7646963            1.2224323           -0.5422640
 Dipole Y            :        -30.1476362           30.2622758            0.1146396
 Dipole Z            :         -1.2304644            0.8050249           -0.4254395
 Magnitude           :                                                    0.6987069

 ------------------------------------------------------------------------------------

*** tstop() called on pyra at Mon Feb 26 16:26:23 2024
Module time:
	user time   =       0.45 seconds =       0.01 minutes
	system time =       0.01 seconds =       0.00 minutes
	total time  =          1 seconds =       0.02 minutes
Total time:
	user time   =       0.78 seconds =       0.01 minutes
	system time =       0.04 seconds =       0.00 minutes
	total time  =          1 seconds =       0.02 minutes

    Psi4 stopped on: Monday, 26 February 2024 04:26PM
    Psi4 wall time for execution: 0:00:00.46


    -----------------------------------------------------------------------
          Psi4: An Open-Source Ab Initio Electronic Structure Package
                               Psi4 1.9 release

                         Git: Rev {} zzzzzzz 


    D. G. A. Smith, L. A. Burns, A. C. Simmonett, R. M. Parrish,
    M. C. Schieber, R. Galvelis, P. Kraus, H. Kruse, R. Di Remigio,
    A. Alenaizan, A. M. James, S. Lehtola, J. P. Misiewicz, M. Scheurer,
    R. A. Shaw, J. B. Schriber, Y. Xie, Z. L. Glick, D. A. Sirianni,
    J. S. O'Brien, J. M. Waldrop, A. Kumar, E. G. Hohenstein,
    B. P. Pritchard, B. R. Brooks, H. F. Schaefer III, A. Yu. Sokolov,
    K. Patkowski, A. E. DePrince III, U. Bozkaya, R. A. King,
    F. A. Evangelista, J. M. Turney, T. D. Crawford, C. D. Sherrill,
    J. Chem. Phys. 152(18) 184108 (2020). https://doi.org/10.1063/5.0006002

                            Additional Code Authors
    E. T. Seidl, C. L. Janssen, E. F. Valeev, M. L. Leininger,
    J. F. Gonthier, R. M. Richard, H. R. McAlexander, M. Saitow, X. Wang,
    P. Verma, M. H. Lechner, A. Jiang, S. Behnle, A. G. Heide,
    M. F. Herbst, and D. L. Poole

             Previous Authors, Complete List of Code Contributors,
                       and Citations for Specific Modules
    https://github.com/psi4/psi4/blob/master/codemeta.json
    https://github.com/psi4/psi4/graphs/contributors
    http://psicode.org/psi4manual/master/introduction.html#citing-psifour

    -----------------------------------------------------------------------


    Psi4 started on: Monday, 26 February 2024 04:26PM

    Process ID: 51713
    Host:       pyra
    PSIDATADIR: /mnt/optane/ben/miniconda3/envs/qcmanybody/share/psi4
    Memory:     500.0 MiB
    Threads:    1
    
  ==> Input QCSchema <==

--------------------------------------------------------------------------
{'driver': 'energy',
 'extras': {'psiapi': True, 'wfn_qcvars_only': True},
 'id': None,
 'keywords': {'CC_TYPE': 'DF', 'DF_BASIS_MP2': 'DEF2-QZVPP-RI', 'function_kwargs': {}},
 'model': {'basis': 'sto-3g', 'method': 'b3lyp'},
 'molecule': {'atom_labels': ['', '', '', '', '', ''],
              'atomic_numbers': [8, 1, 1, 8, 1, 1],
              'extras': {},
              'fix_com': True,
              'fix_orientation': True,
              'fragment_charges': [0.0, 0.0],
              'fragment_multiplicities': [1, 1],
              'fragments': [[0, 1, 2], [3, 4, 5]],
              'geometry': [-2.763261453986384, -1.24533349520034, -0.13649253926231877, -1.1231071239863841,
                           -2.06383613520034, -0.03448486926231875, -3.807452833986384, -2.0886116852003402,
                           1.0788571907376814, 2.469716926013616, -1.75593382520034, -0.15297571926231876,
                           3.764153386013616, -2.2158104652003403, 1.0264141607376813, 2.306454086013616,
                           0.0694280147996599, -0.021471609262318753],
              'mass_numbers': [16, 1, 1, 16, 1, 1],
              'masses': [15.99491461957, 1.00782503223, 1.00782503223, 15.99491461957, 1.00782503223, 1.00782503223],
              'molecular_charge': 0.0,
              'molecular_multiplicity': 1,
              'name': 'h2o_trimer',
              'provenance': {'creator': 'QCElemental',
                             'routine': 'qcelemental.molparse.from_string',
                             'version': '0.27.1'},
              'real': [True, True, True, True, True, True],
              'schema_name': 'qcschema_molecule',
              'schema_version': 2,
              'symbols': ['O', 'H', 'H', 'O', 'H', 'H'],
              'validated': True},
 'protocols': {'stdout': True},
 'provenance': {'creator': 'QCElemental', 'routine': 'qcelemental.models.results', 'version': '0.27.1'},
 'schema_name': 'qcschema_input',
 'schema_version': 1}
--------------------------------------------------------------------------

Scratch directory: /tmp/
   => Libint2 <=

    Primary   basis highest AM E, G, H:  5, 4, 3
    Auxiliary basis highest AM E, G, H:  6, 5, 4
    Onebody   basis highest AM E, G, H:  6, 5, 4
    Solid Harmonics ordering:            gaussian

*** tstart() called on pyra
*** at Mon Feb 26 16:26:23 2024

   => Loading Basis Set <=

    Name: STO-3G
    Role: ORBITAL
    Keyword: BASIS
    atoms 1, 4     entry O          line    81 file /mnt/optane/ben/miniconda3/envs/qcmanybody/share/psi4/basis/sto-3g.gbs 
    atoms 2-3, 5-6 entry H          line    19 file /mnt/optane/ben/miniconda3/envs/qcmanybody/share/psi4/basis/sto-3g.gbs 


         ---------------------------------------------------------
                                   SCF
               by Justin Turney, Rob Parrish, Andy Simmonett
                          and Daniel G. A. Smith
                              RKS Reference
                        1 Threads,    500 MiB Core
         ---------------------------------------------------------

  ==> Geometry <==

    Molecular point group: c1
    Full point group: C1

    Geometry (in Bohr), charge = 0, multiplicity = 1:

       Center              X                  Y                   Z               Mass       
    ------------   -----------------  -----------------  -----------------  -----------------
         O           -2.763261453986    -1.245333495200    -0.136492539262    15.994914619570
         H           -1.123107123986    -2.063836135200    -0.034484869262     1.007825032230
         H           -3.807452833986    -2.088611685200     1.078857190738     1.007825032230
         O            2.469716926014    -1.755933825200    -0.152975719262    15.994914619570
         H            3.764153386014    -2.215810465200     1.026414160738     1.007825032230
         H            2.306454086014     0.069428014800    -0.021471609262     1.007825032230

  Running in c1 symmetry.

  Rotational constants: A =      0.67048  B =      0.23249  C =      0.17548 [cm^-1]
  Rotational constants: A =  20100.34686  B =   6969.84238  C =   5260.79778 [MHz]
  Nuclear repulsion =   37.327766624605843

  Charge       = 0
  Multiplicity = 1
  Electrons    = 20
  Nalpha       = 10
  Nbeta        = 10

  ==> Algorithm <==

  SCF Algorithm Type is DF.
  DIIS enabled.
  MOM disabled.
  Fractional occupation disabled.
  Guess Type is SAD.
  Energy threshold   = 1.00e-06
  Density threshold  = 1.00e-06
  Integral threshold = 1.00e-12

  ==> Primary Basis <==

  Basis Set: STO-3G
    Blend: STO-3G
    Number of shells: 10
    Number of basis functions: 14
    Number of Cartesian functions: 14
    Spherical Harmonics?: true
    Max angular momentum: 1

  ==> DFT Potential <==

   => LibXC <=

    Version 6.2.2
    S. Lehtola, C. Steigemann, M. J.T. Oliveira, and M. A.L. Marques.,  SoftwareX 7, 15 (2018) (10.1016/j.softx.2017.11.002)

   => Composite Functional: B3LYP <= 

    B3LYP Hyb-GGA Exchange-Correlation Functional

    P. J. Stephens, F. J. Devlin, C. F. Chabalowski, and M. J. Frisch.,  J. Phys. Chem. 98, 11623 (1994) (10.1021/j100096a001)

    Deriv               =              1
    GGA                 =           TRUE
    Meta                =          FALSE

    Exchange Hybrid     =           TRUE
    MP2 Hybrid          =          FALSE

   => Exchange Functionals <=

    0.0800   Slater exchange
    0.7200         Becke 88

   => Exact (HF) Exchange <=

    0.2000               HF 

   => Correlation Functionals <=

    0.1900   Vosko, Wilk & Nusair (VWN5_RPA)
    0.8100   Lee, Yang & Parr

   => LibXC Density Thresholds  <==

    XC_HYB_GGA_XC_B3LYP:  1.00E-15 

   => Molecular Quadrature <=

    Radial Scheme          =       TREUTLER
    Pruning Scheme         =           NONE
    Nuclear Scheme         =       TREUTLER

    Blocking Scheme        =         OCTREE
    BS radius alpha        =              1
    Pruning alpha          =              1
    Radial Points          =             75
    Spherical Points       =            302
    Total Points           =         130959
    Total Blocks           =           1020
    Max Points             =            256
    Max Functions          =             13
    Weights Tolerance      =       1.00E-15

   => Loading Basis Set <=

    Name: (STO-3G AUX)
    Role: JKFIT
    Keyword: DF_BASIS_SCF
    atoms 1, 4     entry O          line   318 file /mnt/optane/ben/miniconda3/envs/qcmanybody/share/psi4/basis/def2-universal-jkfit.gbs 
    atoms 2-3, 5-6 entry H          line    18 file /mnt/optane/ben/miniconda3/envs/qcmanybody/share/psi4/basis/def2-universal-jkfit.gbs 

  ==> Integral Setup <==

  DFHelper Memory: AOs need 0.001 GiB; user supplied 0.317 GiB. 
  Using in-core AOs.

  ==> MemDFJK: Density-Fitted J/K Matrices <==

    J tasked:                   Yes
    K tasked:                   Yes
    wK tasked:                   No
    OpenMP threads:               1
    Memory [MiB]:               324
    Algorithm:                 Core
    Schwarz Cutoff:           1E-12
    Mask sparsity (%):       1.0204
    Fitting Condition:        1E-10

   => Auxiliary Basis Set <=

  Basis Set: (STO-3G AUX)
    Blend: DEF2-UNIVERSAL-JKFIT
    Number of shells: 74
    Number of basis functions: 226
    Number of Cartesian functions: 266
    Spherical Harmonics?: true
    Max angular momentum: 4

  Cached 100.0% of DFT collocation blocks in 0.049 [GiB].

  Minimum eigenvalue in the overlap matrix is 3.4074143904E-01.
  Reciprocal condition number of the overlap matrix is 1.7130997866E-01.
    Using symmetric orthogonalization.

  ==> Pre-Iterations <==

  SCF Guess: Superposition of Atomic Densities via on-the-fly atomic UHF (no occupation information).

   -------------------------
    Irrep   Nso     Nmo    
   -------------------------
     A         14      14 
   -------------------------
    Total      14      14
   -------------------------

  ==> Iterations <==

                           Total Energy        Delta E     RMS |[F,P]|

   @DF-RKS iter SAD:  -149.77630489503935   -1.49776e+02   0.00000e+00 
   @DF-RKS iter   1:  -150.59331221735764   -8.17007e-01   1.76952e-02 ADIIS/DIIS
   @DF-RKS iter   2:  -150.62114903650669   -2.78368e-02   1.20482e-02 ADIIS/DIIS
   @DF-RKS iter   3:  -150.63973157119617   -1.85825e-02   6.67751e-04 ADIIS/DIIS
   @DF-RKS iter   4:  -150.63978774617351   -5.61750e-05   8.72539e-05 DIIS
   @DF-RKS iter   5:  -150.63978867931877   -9.33145e-07   7.25763e-06 DIIS
   @DF-RKS iter   6:  -150.63978868602044   -6.70167e-09   1.84728e-07 DIIS
  Energy and wave function converged.


  ==> Post-Iterations <==

   Electrons on quadrature grid:
      Ntotal   =   19.9999992877 ; deviation = -7.123e-07 

    Orbital Energies [Eh]
    ---------------------

    Doubly Occupied:                                                      

       1A    -18.869667     2A    -18.790590     3A     -0.957830  
       4A     -0.898396     5A     -0.469227     6A     -0.411830  
       7A     -0.261292     8A     -0.200102     9A     -0.167149  
      10A     -0.111525  

    Virtual:                                                              

      11A      0.316608    12A      0.403559    13A      0.442280  
      14A      0.522461  

    Final Occupation by Irrep:
              A 
    DOCC [    10 ]
    NA   [    10 ]
    NB   [    10 ]

  @DF-RKS Final Energy:  -150.63978868602044

   => Energetics <=

    Nuclear Repulsion Energy =             37.3277666246058430
    One-Electron Energy =                -282.7177208122349157
    Two-Electron Energy =                 110.0129729588572758
    DFT Exchange-Correlation Energy =     -15.2628074572486518
    Empirical Dispersion Energy =           0.0000000000000000
    VV10 Nonlocal Energy =                  0.0000000000000000
    Total Energy =                       -150.6397886860204380

Computation Completed


Properties will be evaluated at   0.000000,   0.000000,   0.000000 [a0]

Properties computed using the SCF density matrix


 Multipole Moments:

 ------------------------------------------------------------------------------------
     Multipole            Electronic (a.u.)      Nuclear  (a.u.)        Total (a.u.)
 ------------------------------------------------------------------------------------

 L = 1.  Multiply by 2.5417464519 to convert [e a0] to [Debye]
 Dipole X            :          1.9456386           -1.2083087            0.7373299
 Dipole Y            :         30.2259615          -30.3089688           -0.0830074
 Dipole Z            :          1.0546564           -0.2664312            0.7882252
 Magnitude           :                                                    1.0825177

 ------------------------------------------------------------------------------------

*** tstop() called on pyra at Mon Feb 26 16:26:23 2024
Module time:
	user time   =       0.49 seconds =       0.01 minutes
	system time =       0.01 seconds =       0.00 minutes
	total time  =          0 seconds =       0.00 minutes
Total time:
	user time   =       1.28 seconds =       0.02 minutes
	system time =       0.05 seconds =       0.00 minutes
	total time  =          1 seconds =       0.02 minutes

    Psi4 stopped on: Monday, 26 February 2024 04:26PM
    Psi4 wall time for execution: 0:00:00.50


    -----------------------------------------------------------------------
          Psi4: An Open-Source Ab Initio Electronic Structure Package
                               Psi4 1.9 release

                         Git: Rev {} zzzzzzz 


    D. G. A. Smith, L. A. Burns, A. C. Simmonett, R. M. Parrish,
    M. C. Schieber, R. Galvelis, P. Kraus, H. Kruse, R. Di Remigio,
    A. Alenaizan, A. M. James, S. Lehtola, J. P. Misiewicz, M. Scheurer,
    R. A. Shaw, J. B. Schriber, Y. Xie, Z. L. Glick, D. A. Sirianni,
    J. S. O'Brien, J. M. Waldrop, A. Kumar, E. G. Hohenstein,
    B. P. Pritchard, B. R. Brooks, H. F. Schaefer III, A. Yu. Sokolov,
    K. Patkowski, A. E. DePrince III, U. Bozkaya, R. A. King,
    F. A. Evangelista, J. M. Turney, T. D. Crawford, C. D. Sherrill,
    J. Chem. Phys. 152(18) 184108 (2020). https://doi.org/10.1063/5.0006002

                            Additional Code Authors
    E. T. Seidl, C. L. Janssen, E. F. Valeev, M. L. Leininger,
    J. F. Gonthier, R. M. Richard, H. R. McAlexander, M. Saitow, X. Wang,
    P. Verma, M. H. Lechner, A. Jiang, S. Behnle, A. G. Heide,
    M. F. Herbst, and D. L. Poole

             Previous Authors, Complete List of Code Contributors,
                       and Citations for Specific Modules
    https://github.com/psi4/psi4/blob/master/codemeta.json
    https://github.com/psi4/psi4/graphs/contributors
    http://psicode.org/psi4manual/master/introduction.html#citing-psifour

    -----------------------------------------------------------------------


    Psi4 started on: Monday, 26 February 2024 04:26PM

    Process ID: 51713
    Host:       pyra
    PSIDATADIR: /mnt/optane/ben/miniconda3/envs/qcmanybody/share/psi4
    Memory:     500.0 MiB
    Threads:    1
    
  ==> Input QCSchema <==

--------------------------------------------------------------------------
{'driver': 'energy',
 'extras': {'psiapi': True, 'wfn_qcvars_only': True},
 'id': None,
 'keywords': {'CC_TYPE': 'DF', 'DF_BASIS_MP2': 'DEF2-QZVPP-RI', 'function_kwargs': {}},
 'model': {'basis': 'sto-3g', 'method': 'b3lyp'},
 'molecule': {'atom_labels': ['', '', ''],
              'atomic_numbers': [8, 1, 1],
              'extras': {},
              'fix_com': True,
              'fix_orientation': True,
              'fragment_charges': [0.0],
              'fragment_multiplicities': [1],
              'fragments': [[0, 1, 2]],
              'geometry': [-2.763261453986384, -1.24533349520034, -0.13649253926231877, -1.1231071239863841,
                           -2.06383613520034, -0.03448486926231875, -3.807452833986384, -2.0886116852003402,
                           1.0788571907376814],
              'mass_numbers': [16, 1, 1],
              'masses': [15.99491461957, 1.00782503223, 1.00782503223],
              'molecular_charge': 0.0,
              'molecular_multiplicity': 1,
              'name': 'h2o_trimer',
              'provenance': {'creator': 'QCElemental',
                             'routine': 'qcelemental.molparse.from_string',
                             'version': '0.27.1'},
              'real': [True, True, True],
              'schema_name': 'qcschema_molecule',
              'schema_version': 2,
              'symbols': ['O', 'H', 'H'],
              'validated': True},
 'protocols': {'stdout': True},
 'provenance': {'creator': 'QCElemental', 'routine': 'qcelemental.models.results', 'version': '0.27.1'},
 'schema_name': 'qcschema_input',
 'schema_version': 1}
--------------------------------------------------------------------------

Scratch directory: /tmp/
   => Libint2 <=

    Primary   basis highest AM E, G, H:  5, 4, 3
    Auxiliary basis highest AM E, G, H:  6, 5, 4
    Onebody   basis highest AM E, G, H:  6, 5, 4
    Solid Harmonics ordering:            gaussian

*** tstart() called on pyra
*** at Mon Feb 26 16:26:23 2024

   => Loading Basis Set <=

    Name: STO-3G
    Role: ORBITAL
    Keyword: BASIS
    atoms 1   entry O          line    81 file /mnt/optane/ben/miniconda3/envs/qcmanybody/share/psi4/basis/sto-3g.gbs 
    atoms 2-3 entry H          line    19 file /mnt/optane/ben/miniconda3/envs/qcmanybody/share/psi4/basis/sto-3g.gbs 


         ---------------------------------------------------------
                                   SCF
               by Justin Turney, Rob Parrish, Andy Simmonett
                          and Daniel G. A. Smith
                              RKS Reference
                        1 Threads,    500 MiB Core
         ---------------------------------------------------------

  ==> Geometry <==

    Molecular point group: c1
    Full point group: C1

    Geometry (in Bohr), charge = 0, multiplicity = 1:

       Center              X                  Y                   Z               Mass       
    ------------   -----------------  -----------------  -----------------  -----------------
         O           -2.763261453986    -1.245333495200    -0.136492539262    15.994914619570
         H           -1.123107123986    -2.063836135200    -0.034484869262     1.007825032230
         H           -3.807452833986    -2.088611685200     1.078857190738     1.007825032230

  Running in c1 symmetry.

  Rotational constants: A =     17.22658  B =      0.35254  C =      0.35060 [cm^-1]
  Rotational constants: A = 516439.84588  B =  10569.00629  C =  10510.60524 [MHz]
  Nuclear repulsion =    9.119928278805013

  Charge       = 0
  Multiplicity = 1
  Electrons    = 10
  Nalpha       = 5
  Nbeta        = 5

  ==> Algorithm <==

  SCF Algorithm Type is DF.
  DIIS enabled.
  MOM disabled.
  Fractional occupation disabled.
  Guess Type is SAD.
  Energy threshold   = 1.00e-06
  Density threshold  = 1.00e-06
  Integral threshold = 1.00e-12

  ==> Primary Basis <==

  Basis Set: STO-3G
    Blend: STO-3G
    Number of shells: 5
    Number of basis functions: 7
    Number of Cartesian functions: 7
    Spherical Harmonics?: true
    Max angular momentum: 1

  ==> DFT Potential <==

   => LibXC <=

    Version 6.2.2
    S. Lehtola, C. Steigemann, M. J.T. Oliveira, and M. A.L. Marques.,  SoftwareX 7, 15 (2018) (10.1016/j.softx.2017.11.002)

   => Composite Functional: B3LYP <= 

    B3LYP Hyb-GGA Exchange-Correlation Functional

    P. J. Stephens, F. J. Devlin, C. F. Chabalowski, and M. J. Frisch.,  J. Phys. Chem. 98, 11623 (1994) (10.1021/j100096a001)

    Deriv               =              1
    GGA                 =           TRUE
    Meta                =          FALSE

    Exchange Hybrid     =           TRUE
    MP2 Hybrid          =          FALSE

   => Exchange Functionals <=

    0.0800   Slater exchange
    0.7200         Becke 88

   => Exact (HF) Exchange <=

    0.2000               HF 

   => Correlation Functionals <=

    0.1900   Vosko, Wilk & Nusair (VWN5_RPA)
    0.8100   Lee, Yang & Parr

   => LibXC Density Thresholds  <==

    XC_HYB_GGA_XC_B3LYP:  1.00E-15 

   => Molecular Quadrature <=

    Radial Scheme          =       TREUTLER
    Pruning Scheme         =           NONE
    Nuclear Scheme         =       TREUTLER

    Blocking Scheme        =         OCTREE
    BS radius alpha        =              1
    Pruning alpha          =              1
    Radial Points          =             75
    Spherical Points       =            302
    Total Points           =          65765
    Total Blocks           =            544
    Max Points             =            256
    Max Functions          =              7
    Weights Tolerance      =       1.00E-15

   => Loading Basis Set <=

    Name: (STO-3G AUX)
    Role: JKFIT
    Keyword: DF_BASIS_SCF
    atoms 1   entry O          line   318 file /mnt/optane/ben/miniconda3/envs/qcmanybody/share/psi4/basis/def2-universal-jkfit.gbs 
    atoms 2-3 entry H          line    18 file /mnt/optane/ben/miniconda3/envs/qcmanybody/share/psi4/basis/def2-universal-jkfit.gbs 

  ==> Integral Setup <==

  DFHelper Memory: AOs need 0.000 GiB; user supplied 0.353 GiB. 
  Using in-core AOs.

  ==> MemDFJK: Density-Fitted J/K Matrices <==

    J tasked:                   Yes
    K tasked:                   Yes
    wK tasked:                   No
    OpenMP threads:               1
    Memory [MiB]:               361
    Algorithm:                 Core
    Schwarz Cutoff:           1E-12
    Mask sparsity (%):       0.0000
    Fitting Condition:        1E-10

   => Auxiliary Basis Set <=

  Basis Set: (STO-3G AUX)
    Blend: DEF2-UNIVERSAL-JKFIT
    Number of shells: 37
    Number of basis functions: 113
    Number of Cartesian functions: 133
    Spherical Harmonics?: true
    Max angular momentum: 4

  Cached 100.0% of DFT collocation blocks in 0.013 [GiB].

  Minimum eigenvalue in the overlap matrix is 3.4706319112E-01.
  Reciprocal condition number of the overlap matrix is 1.8103780232E-01.
[...]
  Nuclear repulsion =   37.420872712481220

  Charge       = 0
  Multiplicity = 1
  Electrons    = 20
  Nalpha       = 10
  Nbeta        = 10

  ==> Algorithm <==

  SCF Algorithm Type is DF.
  DIIS enabled.
  MOM disabled.
  Fractional occupation disabled.
  Guess Type is SAD.
  Energy threshold   = 1.00e-06
  Density threshold  = 1.00e-06
  Integral threshold = 1.00e-12

  ==> Primary Basis <==

  Basis Set: STO-3G
    Blend: STO-3G
    Number of shells: 10
    Number of basis functions: 14
    Number of Cartesian functions: 14
    Spherical Harmonics?: true
    Max angular momentum: 1

   => Loading Basis Set <=

    Name: (STO-3G AUX)
    Role: JKFIT
    Keyword: DF_BASIS_SCF
    atoms 1, 4     entry O          line   318 file /mnt/optane/ben/miniconda3/envs/qcmanybody/share/psi4/basis/def2-universal-jkfit.gbs 
    atoms 2-3, 5-6 entry H          line    18 file /mnt/optane/ben/miniconda3/envs/qcmanybody/share/psi4/basis/def2-universal-jkfit.gbs 

  ==> Integral Setup <==

  DFHelper Memory: AOs need 0.001 GiB; user supplied 0.366 GiB. 
  Using in-core AOs.

  ==> MemDFJK: Density-Fitted J/K Matrices <==

    J tasked:                   Yes
    K tasked:                   Yes
    wK tasked:                   No
    OpenMP threads:               1
    Memory [MiB]:               375
    Algorithm:                 Core
    Schwarz Cutoff:           1E-12
    Mask sparsity (%):       1.0204
    Fitting Condition:        1E-10

   => Auxiliary Basis Set <=

  Basis Set: (STO-3G AUX)
    Blend: DEF2-UNIVERSAL-JKFIT
    Number of shells: 74
    Number of basis functions: 226
    Number of Cartesian functions: 266
    Spherical Harmonics?: true
    Max angular momentum: 4

  Minimum eigenvalue in the overlap matrix is 3.4063509175E-01.
  Reciprocal condition number of the overlap matrix is 1.7073707716E-01.
    Using symmetric orthogonalization.

  ==> Pre-Iterations <==

  SCF Guess: Superposition of Atomic Densities via on-the-fly atomic UHF (no occupation information).

   -------------------------
    Irrep   Nso     Nmo    
   -------------------------
     A         14      14 
   -------------------------
    Total      14      14
   -------------------------

  ==> Iterations <==

                           Total Energy        Delta E     RMS |[F,P]|

   @DF-RHF iter SAD:  -148.42275901187662   -1.48423e+02   0.00000e+00 
   @DF-RHF iter   1:  -149.84541804355547   -1.42266e+00   2.34649e-02 ADIIS/DIIS
   @DF-RHF iter   2:  -149.93239709888161   -8.69791e-02   3.66308e-03 ADIIS/DIIS
   @DF-RHF iter   3:  -149.93422966386581   -1.83256e-03   8.97641e-04 ADIIS/DIIS
   @DF-RHF iter   4:  -149.93437895747226   -1.49294e-04   9.47017e-05 DIIS
   @DF-RHF iter   5:  -149.93438133920179   -2.38173e-06   2.68359e-05 DIIS
   @DF-RHF iter   6:  -149.93438155134697   -2.12145e-07   2.29937e-06 DIIS
   @DF-RHF iter   7:  -149.93438155262885   -1.28188e-09   2.77283e-07 DIIS
  Energy and wave function converged.


  ==> Post-Iterations <==

    Orbital Energies [Eh]
    ---------------------

    Doubly Occupied:                                                      

       1A    -20.267820     2A    -20.198469     3A     -1.287836  
       4A     -1.233326     5A     -0.640430     6A     -0.591319  
       7A     -0.477995     8A     -0.431952     9A     -0.395682  
      10A     -0.360233  

    Virtual:                                                              

      11A      0.566153    12A      0.655627    13A      0.714252  
      14A      0.791629  

    Final Occupation by Irrep:
              A 
    DOCC [    10 ]
    NA   [    10 ]
    NB   [    10 ]

  @DF-RHF Final Energy:  -149.93438155262885

   => Energetics <=

    Nuclear Repulsion Energy =             37.4208727124812199
    One-Electron Energy =                -282.9403751368972735
    Two-Electron Energy =                  95.5851208717872112
    Total Energy =                       -149.9343815526288495

Computation Completed


Properties will be evaluated at   0.000000,   0.000000,   0.000000 [a0]

Properties computed using the SCF density matrix


 Multipole Moments:

 ------------------------------------------------------------------------------------
     Multipole            Electronic (a.u.)      Nuclear  (a.u.)        Total (a.u.)
 ------------------------------------------------------------------------------------

 L = 1.  Multiply by 2.5417464519 to convert [e a0] to [Debye]
 Dipole X            :        -27.3116236           27.0507752           -0.2608484
 Dipole Y            :        -13.4322626           14.0684227            0.6361602
 Dipole Z            :         -0.6378024            0.5861617           -0.0516408
 Magnitude           :                                                    0.6894987

 ------------------------------------------------------------------------------------

*** tstop() called on pyra at Mon Feb 26 16:26:33 2024
Module time:
	user time   =       0.10 seconds =       0.00 minutes
	system time =       0.00 seconds =       0.00 minutes
	total time  =          0 seconds =       0.00 minutes
Total time:
	user time   =      10.52 seconds =       0.18 minutes
	system time =       0.15 seconds =       0.00 minutes
	total time  =         11 seconds =       0.18 minutes

    Psi4 stopped on: Monday, 26 February 2024 04:26PM
    Psi4 wall time for execution: 0:00:00.11


    -----------------------------------------------------------------------
          Psi4: An Open-Source Ab Initio Electronic Structure Package
                               Psi4 1.9 release

                         Git: Rev {} zzzzzzz 


    D. G. A. Smith, L. A. Burns, A. C. Simmonett, R. M. Parrish,
    M. C. Schieber, R. Galvelis, P. Kraus, H. Kruse, R. Di Remigio,
    A. Alenaizan, A. M. James, S. Lehtola, J. P. Misiewicz, M. Scheurer,
    R. A. Shaw, J. B. Schriber, Y. Xie, Z. L. Glick, D. A. Sirianni,
    J. S. O'Brien, J. M. Waldrop, A. Kumar, E. G. Hohenstein,
    B. P. Pritchard, B. R. Brooks, H. F. Schaefer III, A. Yu. Sokolov,
    K. Patkowski, A. E. DePrince III, U. Bozkaya, R. A. King,
    F. A. Evangelista, J. M. Turney, T. D. Crawford, C. D. Sherrill,
    J. Chem. Phys. 152(18) 184108 (2020). https://doi.org/10.1063/5.0006002

                            Additional Code Authors
    E. T. Seidl, C. L. Janssen, E. F. Valeev, M. L. Leininger,
    J. F. Gonthier, R. M. Richard, H. R. McAlexander, M. Saitow, X. Wang,
    P. Verma, M. H. Lechner, A. Jiang, S. Behnle, A. G. Heide,
    M. F. Herbst, and D. L. Poole

             Previous Authors, Complete List of Code Contributors,
                       and Citations for Specific Modules
    https://github.com/psi4/psi4/blob/master/codemeta.json
    https://github.com/psi4/psi4/graphs/contributors
    http://psicode.org/psi4manual/master/introduction.html#citing-psifour

    -----------------------------------------------------------------------


    Psi4 started on: Monday, 26 February 2024 04:26PM

    Process ID: 51713
    Host:       pyra
    PSIDATADIR: /mnt/optane/ben/miniconda3/envs/qcmanybody/share/psi4
    Memory:     500.0 MiB
    Threads:    1
    
  ==> Input QCSchema <==

--------------------------------------------------------------------------
{'driver': 'energy',
 'extras': {'psiapi': True, 'wfn_qcvars_only': True},
 'id': None,
 'keywords': {'CC_TYPE': 'DF', 'DF_BASIS_MP2': 'DEF2-QZVPP-RI', 'function_kwargs': {}},
 'model': {'basis': 'sto-3g', 'method': 'scf'},
 'molecule': {'atom_labels': ['', '', '', '', '', ''],
              'atomic_numbers': [8, 1, 1, 8, 1, 1],
              'extras': {},
              'fix_com': True,
              'fix_orientation': True,
              'fragment_charges': [0.0, 0.0],
              'fragment_multiplicities': [1, 1],
              'fragments': [[0, 1, 2], [3, 4, 5]],
              'geometry': [-2.763261453986384, -1.24533349520034, -0.13649253926231877, -1.1231071239863841,
                           -2.06383613520034, -0.03448486926231875, -3.807452833986384, -2.0886116852003402,
                           1.0788571907376814, 0.29175008601361585, 3.0071998147996597, 0.22103827073768123,
                           -1.2120596939863841, 1.95665256479966, 0.12098636073768124, 0.10049127601361584,
                           4.2480247147996595, -1.0842676692623188],
              'mass_numbers': [16, 1, 1, 16, 1, 1],
              'masses': [15.99491461957, 1.00782503223, 1.00782503223, 15.99491461957, 1.00782503223, 1.00782503223],
              'molecular_charge': 0.0,
              'molecular_multiplicity': 1,
              'name': 'h2o_trimer',
              'provenance': {'creator': 'QCElemental',
                             'routine': 'qcelemental.molparse.from_string',
                             'version': '0.27.1'},
              'real': [True, True, True, True, True, True],
              'schema_name': 'qcschema_molecule',
              'schema_version': 2,
              'symbols': ['O', 'H', 'H', 'O', 'H', 'H'],
              'validated': True},
 'protocols': {'stdout': True},
 'provenance': {'creator': 'QCElemental', 'routine': 'qcelemental.models.results', 'version': '0.27.1'},
 'schema_name': 'qcschema_input',
 'schema_version': 1}
--------------------------------------------------------------------------

Scratch directory: /tmp/
   => Libint2 <=

    Primary   basis highest AM E, G, H:  5, 4, 3
    Auxiliary basis highest AM E, G, H:  6, 5, 4
    Onebody   basis highest AM E, G, H:  6, 5, 4
    Solid Harmonics ordering:            gaussian

*** tstart() called on pyra
*** at Mon Feb 26 16:26:33 2024

   => Loading Basis Set <=

    Name: STO-3G
    Role: ORBITAL
    Keyword: BASIS
    atoms 1, 4     entry O          line    81 file /mnt/optane/ben/miniconda3/envs/qcmanybody/share/psi4/basis/sto-3g.gbs 
    atoms 2-3, 5-6 entry H          line    19 file /mnt/optane/ben/miniconda3/envs/qcmanybody/share/psi4/basis/sto-3g.gbs 


         ---------------------------------------------------------
                                   SCF
               by Justin Turney, Rob Parrish, Andy Simmonett
                          and Daniel G. A. Smith
                              RHF Reference
                        1 Threads,    500 MiB Core
         ---------------------------------------------------------

  ==> Geometry <==

    Molecular point group: c1
    Full point group: C1

    Geometry (in Bohr), charge = 0, multiplicity = 1:

       Center              X                  Y                   Z               Mass       
    ------------   -----------------  -----------------  -----------------  -----------------
         O           -2.763261453986    -1.245333495200    -0.136492539262    15.994914619570
         H           -1.123107123986    -2.063836135200    -0.034484869262     1.007825032230
         H           -3.807452833986    -2.088611685200     1.078857190738     1.007825032230
         O            0.291750086014     3.007199814800     0.221038270738    15.994914619570
         H           -1.212059693986     1.956652564800     0.120986360738     1.007825032230
         H            0.100491276014     4.248024714800    -1.084267669262     1.007825032230

  Running in c1 symmetry.

  Rotational constants: A =      0.66279  B =      0.23433  C =      0.17639 [cm^-1]
  Rotational constants: A =  19869.84792  B =   7025.12195  C =   5288.12029 [MHz]
  Nuclear repulsion =   37.415382693305901

  Charge       = 0
  Multiplicity = 1
  Electrons    = 20
  Nalpha       = 10
  Nbeta        = 10

  ==> Algorithm <==

  SCF Algorithm Type is DF.
  DIIS enabled.
  MOM disabled.
  Fractional occupation disabled.
  Guess Type is SAD.
  Energy threshold   = 1.00e-06
  Density threshold  = 1.00e-06
  Integral threshold = 1.00e-12

  ==> Primary Basis <==

  Basis Set: STO-3G
    Blend: STO-3G
    Number of shells: 10
    Number of basis functions: 14
    Number of Cartesian functions: 14
    Spherical Harmonics?: true
    Max angular momentum: 1

   => Loading Basis Set <=

    Name: (STO-3G AUX)
    Role: JKFIT
    Keyword: DF_BASIS_SCF
    atoms 1, 4     entry O          line   318 file /mnt/optane/ben/miniconda3/envs/qcmanybody/share/psi4/basis/def2-universal-jkfit.gbs 
    atoms 2-3, 5-6 entry H          line    18 file /mnt/optane/ben/miniconda3/envs/qcmanybody/share/psi4/basis/def2-universal-jkfit.gbs 

  ==> Integral Setup <==

  DFHelper Memory: AOs need 0.001 GiB; user supplied 0.366 GiB. 
  Using in-core AOs.

  ==> MemDFJK: Density-Fitted J/K Matrices <==

    J tasked:                   Yes
    K tasked:                   Yes
    wK tasked:                   No
    OpenMP threads:               1
    Memory [MiB]:               375
    Algorithm:                 Core
    Schwarz Cutoff:           1E-12
    Mask sparsity (%):       1.0204
    Fitting Condition:        1E-10

   => Auxiliary Basis Set <=

  Basis Set: (STO-3G AUX)
    Blend: DEF2-UNIVERSAL-JKFIT
    Number of shells: 74
    Number of basis functions: 226
    Number of Cartesian functions: 266
    Spherical Harmonics?: true
    Max angular momentum: 4

  Minimum eigenvalue in the overlap matrix is 3.4069553340E-01.
  Reciprocal condition number of the overlap matrix is 1.7095996847E-01.
    Using symmetric orthogonalization.

  ==> Pre-Iterations <==

  SCF Guess: Superposition of Atomic Densities via on-the-fly atomic UHF (no occupation information).

   -------------------------
    Irrep   Nso     Nmo    
   -------------------------
     A         14      14 
   -------------------------
    Total      14      14
   -------------------------

  ==> Iterations <==

                           Total Energy        Delta E     RMS |[F,P]|

   @DF-RHF iter SAD:  -148.42342828979790   -1.48423e+02   0.00000e+00 
   @DF-RHF iter   1:  -149.84546993001635   -1.42204e+00   2.34575e-02 ADIIS/DIIS
   @DF-RHF iter   2:  -149.93239821737114   -8.69283e-02   3.65643e-03 ADIIS/DIIS
   @DF-RHF iter   3:  -149.93422088567340   -1.82267e-03   8.95726e-04 ADIIS/DIIS
   @DF-RHF iter   4:  -149.93436929274313   -1.48407e-04   9.43238e-05 DIIS
   @DF-RHF iter   5:  -149.93437168522649   -2.39248e-06   2.53241e-05 DIIS
   @DF-RHF iter   6:  -149.93437187347305   -1.88247e-07   2.29582e-06 DIIS
   @DF-RHF iter   7:  -149.93437187474873   -1.27568e-09   2.76267e-07 DIIS
  Energy and wave function converged.


  ==> Post-Iterations <==

    Orbital Energies [Eh]
    ---------------------

    Doubly Occupied:                                                      

       1A    -20.267572     2A    -20.197942     3A     -1.287847  
       4A     -1.232673     5A     -0.641232     6A     -0.590389  
       7A     -0.477963     8A     -0.430709     9A     -0.396328  
      10A     -0.359544  

    Virtual:                                                              

      11A      0.565402    12A      0.656605    13A      0.715036  
      14A      0.792872  

    Final Occupation by Irrep:
              A 
    DOCC [    10 ]
    NA   [    10 ]
    NB   [    10 ]

  @DF-RHF Final Energy:  -149.93437187474873

   => Energetics <=

    Nuclear Repulsion Energy =             37.4153826933059008
    One-Electron Energy =                -282.9350996099240092
    Two-Electron Energy =                  95.5853450418693740
    Total Energy =                       -149.9343718747487344

Computation Completed


Properties will be evaluated at   0.000000,   0.000000,   0.000000 [a0]

Properties computed using the SCF density matrix


 Multipole Moments:

 ------------------------------------------------------------------------------------
     Multipole            Electronic (a.u.)      Nuclear  (a.u.)        Total (a.u.)
 ------------------------------------------------------------------------------------

 L = 1.  Multiply by 2.5417464519 to convert [e a0] to [Debye]
 Dipole X            :         25.3817493          -25.8142193           -0.4324700
 Dipole Y            :        -16.7546574           16.1471600           -0.6074973
 Dipole Z            :         -0.7576073            0.7574569           -0.0001504
 Magnitude           :                                                    0.7457100

 ------------------------------------------------------------------------------------

*** tstop() called on pyra at Mon Feb 26 16:26:33 2024
Module time:
	user time   =       0.11 seconds =       0.00 minutes
	system time =       0.00 seconds =       0.00 minutes
	total time  =          0 seconds =       0.00 minutes
Total time:
	user time   =      10.65 seconds =       0.18 minutes
	system time =       0.15 seconds =       0.00 minutes
	total time  =         11 seconds =       0.18 minutes

    Psi4 stopped on: Monday, 26 February 2024 04:26PM
    Psi4 wall time for execution: 0:00:00.12


  //>>>>>>>>>>>>>>>>>>>>>>>>>>>>>>>>>>>//
  //          ManyBody Results         //
  //<<<<<<<<<<<<<<<<<<<<<<<<<<<<<<<<<<<//


   ==> N-Body: CP-corrected multilevel many-body expansion energies <==

        n-Body     Total Energy            Interaction Energy                          N-body Contribution to Interaction Energy
                   [Eh]                    [Eh]                  [kcal/mol]            [Eh]                  [kcal/mol]
             1     -224.998373505199        0.000000000000        0.000000000000        0.000000000000        0.000000000000
             2     -225.014847820132       -0.016474314933      -10.337788694715       -0.016474314933      -10.337788694715
  FULL/RTN   3     -225.018949240520       -0.020575735321      -12.911468843878       -0.004101420388       -2.573680149163


   ==> N-Body: NOCP-corrected multilevel many-body expansion energies <==

        n-Body     Total Energy            Interaction Energy                          N-body Contribution to Interaction Energy
                   [Eh]                    [Eh]                  [kcal/mol]            [Eh]                  [kcal/mol]
             1     -224.998373505199        0.000000000000        0.000000000000        0.000000000000        0.000000000000
             2     -225.037065122486       -0.038691617287      -24.279356403430       -0.038691617287      -24.279356403430
  FULL/RTN   3     -225.041166542873       -0.042793037675      -26.853036552592       -0.004101420388       -2.573680149163


   ==> N-Body: VMFC-corrected multilevel many-body expansion energies <==

        n-Body     Total Energy            Interaction Energy                          N-body Contribution to Interaction Energy
                   [Eh]                    [Eh]                  [kcal/mol]            [Eh]                  [kcal/mol]
             1     -224.998373505199        0.000000000000        0.000000000000        0.000000000000        0.000000000000
             2     -225.012837226041       -0.014463720842       -9.076121854519       -0.014463720842       -9.076121854519
  FULL/RTN   3     -225.016938646428       -0.018565141230      -11.649802003682       -0.004101420388       -2.573680149163



  Variable Map:
  ----------------------------------------------------------------------------
  "1CP"                      =>    -224.998373505199
  "1NOCP"                    =>    -224.998373505199
  "1VMFC"                    =>    -224.998373505199
  "2CP"                      =>    -225.014847820132
  "2NOCP"                    =>    -225.037065122486
  "2VMFC"                    =>    -225.012837226041
  "3CP"                      =>    -225.018949240520
  "3NOCP"                    =>    -225.041166542873
  "3VMFC"                    =>    -225.016938646428
  "CURRENT ENERGY"           =>    -225.018949240520
  "NBODY NUMBER"             =>      28.000000000000
  "NUCLEAR REPULSION ENERGY" =>      84.811002541317




  Array Variable Map:
  ----------------------------------------------------------------------------



    Psi4 stopped on: Monday, 26 February 2024 04:26PM
    Psi4 wall time for execution: 0:00:12.29

*** Psi4 exiting successfully. Buy a developer a beer!
