
    -----------------------------------------------------------------------
          Psi4: An Open-Source Ab Initio Electronic Structure Package
                               Psi4 1.9 release

                         Git: Rev {} zzzzzzz 


    D. G. A. Smith, L. A. Burns, A. C. Simmonett, R. M. Parrish,
    M. C. Schieber, R. Galvelis, P. Kraus, H. Kruse, R. Di Remigio,
    A. Alenaizan, A. M. James, S. Lehtola, J. P. Misiewicz, M. Scheurer,
    R. A. Shaw, J. B. Schriber, Y. Xie, Z. L. Glick, D. A. Sirianni,
    J. S. O'Brien, J. M. Waldrop, A. Kumar, E. G. Hohenstein,
    B. P. Pritchard, B. R. Brooks, H. F. Schaefer III, A. Yu. Sokolov,
    K. Patkowski, A. E. DePrince III, U. Bozkaya, R. A. King,
    F. A. Evangelista, J. M. Turney, T. D. Crawford, C. D. Sherrill,
    J. Chem. Phys. 152(18) 184108 (2020). https://doi.org/10.1063/5.0006002

                            Additional Code Authors
    E. T. Seidl, C. L. Janssen, E. F. Valeev, M. L. Leininger,
    J. F. Gonthier, R. M. Richard, H. R. McAlexander, M. Saitow, X. Wang,
    P. Verma, M. H. Lechner, A. Jiang, S. Behnle, A. G. Heide,
    M. F. Herbst, and D. L. Poole

             Previous Authors, Complete List of Code Contributors,
                       and Citations for Specific Modules
    https://github.com/psi4/psi4/blob/master/codemeta.json
    https://github.com/psi4/psi4/graphs/contributors
    http://psicode.org/psi4manual/master/introduction.html#citing-psifour

    -----------------------------------------------------------------------


    Psi4 started on: Monday, 12 February 2024 04:15PM

    Process ID: 123522
    Host:       pyra
    PSIDATADIR: /mnt/optane/ben/miniconda3/envs/qcmanybody/share/psi4
    Memory:     500.0 MiB
    Threads:    1
    
  ==> Input File <==

--------------------------------------------------------------------------
#! Example potential energy surface scan and CP-correction for Ne2

molecule h2o_trimer {
O      -2.76373224  -1.24377706  -0.15444566 
H      -1.12357791  -2.06227970  -0.05243799 
H      -3.80792362  -2.08705525   1.06090407 
--
O       2.46924614  -1.75437739  -0.17092884 
H       3.76368260  -2.21425403   1.00846104 
H       2.30598330   0.07098445  -0.03942473 
--
O       0.29127930   3.00875625   0.20308515 
H      -1.21253048   1.95820900   0.10303324 
H       0.10002049   4.24958115  -1.10222079 
units bohr
}

levels = {2: 'scf/sto-3g', 1: 'mp2/sto-3g'}
set cc_type df
set df_basis_mp2 def2-qzvpp-ri

ecp = energy('', molecule=h2o_trimer, bsse_type = 'cp', return_total_data=True, levels=levels)
--------------------------------------------------------------------------

Scratch directory: /tmp/

  //>>>>>>>>>>>>>>>>>>>>>>>>>>>>>>>>>>>>>//
  // ManyBody Setup: N-Body Levels [1, 2]//
  //<<<<<<<<<<<<<<<<<<<<<<<<<<<<<<<<<<<<<//

        Number of 1-body computations:     6
        Number of 2-body computations:     6

    -----------------------------------------------------------------------
          Psi4: An Open-Source Ab Initio Electronic Structure Package
                               Psi4 1.9 release

                         Git: Rev {} zzzzzzz 


    D. G. A. Smith, L. A. Burns, A. C. Simmonett, R. M. Parrish,
    M. C. Schieber, R. Galvelis, P. Kraus, H. Kruse, R. Di Remigio,
    A. Alenaizan, A. M. James, S. Lehtola, J. P. Misiewicz, M. Scheurer,
    R. A. Shaw, J. B. Schriber, Y. Xie, Z. L. Glick, D. A. Sirianni,
    J. S. O'Brien, J. M. Waldrop, A. Kumar, E. G. Hohenstein,
    B. P. Pritchard, B. R. Brooks, H. F. Schaefer III, A. Yu. Sokolov,
    K. Patkowski, A. E. DePrince III, U. Bozkaya, R. A. King,
    F. A. Evangelista, J. M. Turney, T. D. Crawford, C. D. Sherrill,
    J. Chem. Phys. 152(18) 184108 (2020). https://doi.org/10.1063/5.0006002

                            Additional Code Authors
    E. T. Seidl, C. L. Janssen, E. F. Valeev, M. L. Leininger,
    J. F. Gonthier, R. M. Richard, H. R. McAlexander, M. Saitow, X. Wang,
    P. Verma, M. H. Lechner, A. Jiang, S. Behnle, A. G. Heide,
    M. F. Herbst, and D. L. Poole

             Previous Authors, Complete List of Code Contributors,
                       and Citations for Specific Modules
    https://github.com/psi4/psi4/blob/master/codemeta.json
    https://github.com/psi4/psi4/graphs/contributors
    http://psicode.org/psi4manual/master/introduction.html#citing-psifour

    -----------------------------------------------------------------------


    Psi4 started on: Monday, 12 February 2024 04:15PM

    Process ID: 123522
    Host:       pyra
    PSIDATADIR: /mnt/optane/ben/miniconda3/envs/qcmanybody/share/psi4
    Memory:     500.0 MiB
    Threads:    1
    
  ==> Input QCSchema <==

--------------------------------------------------------------------------
{'driver': 'energy',
 'extras': {'psiapi': True, 'wfn_qcvars_only': True},
 'id': None,
 'keywords': {'CC_TYPE': 'DF', 'DF_BASIS_MP2': 'DEF2-QZVPP-RI', 'function_kwargs': {}},
 'model': {'basis': 'sto-3g', 'method': 'scf'},
 'molecule': {'atom_labels': ['', '', ''],
              'atomic_numbers': [8, 1, 1],
              'extras': {},
              'fix_com': True,
              'fix_orientation': True,
              'fragment_charges': [0.0],
              'fragment_multiplicities': [1],
              'fragments': [[0, 1, 2]],
              'geometry': [-2.763261453986384, -1.24533349520034, -0.13649253926231877, -1.1231071239863841,
                           -2.06383613520034, -0.03448486926231875, -3.807452833986384, -2.0886116852003402,
                           1.0788571907376814],
              'mass_numbers': [16, 1, 1],
              'masses': [15.99491461957, 1.00782503223, 1.00782503223],
              'molecular_charge': 0.0,
              'molecular_multiplicity': 1,
              'name': 'h2o_trimer',
              'provenance': {'creator': 'QCElemental',
                             'routine': 'qcelemental.molparse.from_string',
                             'version': '0.27.1'},
              'real': [True, True, True],
              'schema_name': 'qcschema_molecule',
              'schema_version': 2,
              'symbols': ['O', 'H', 'H'],
              'validated': True},
 'protocols': {'stdout': True},
 'provenance': {'creator': 'QCElemental', 'routine': 'qcelemental.models.results', 'version': '0.27.1'},
 'schema_name': 'qcschema_input',
 'schema_version': 1}
--------------------------------------------------------------------------

Scratch directory: /tmp/
   => Libint2 <=

    Primary   basis highest AM E, G, H:  5, 4, 3
    Auxiliary basis highest AM E, G, H:  6, 5, 4
    Onebody   basis highest AM E, G, H:  6, 5, 4
    Solid Harmonics ordering:            gaussian

*** tstart() called on pyra
*** at Mon Feb 12 16:15:57 2024

   => Loading Basis Set <=

    Name: STO-3G
    Role: ORBITAL
    Keyword: BASIS
    atoms 1   entry O          line    81 file /mnt/optane/ben/miniconda3/envs/qcmanybody/share/psi4/basis/sto-3g.gbs 
    atoms 2-3 entry H          line    19 file /mnt/optane/ben/miniconda3/envs/qcmanybody/share/psi4/basis/sto-3g.gbs 


         ---------------------------------------------------------
                                   SCF
               by Justin Turney, Rob Parrish, Andy Simmonett
                          and Daniel G. A. Smith
                              RHF Reference
                        1 Threads,    500 MiB Core
         ---------------------------------------------------------

  ==> Geometry <==

    Molecular point group: c1
    Full point group: C1

    Geometry (in Bohr), charge = 0, multiplicity = 1:

       Center              X                  Y                   Z               Mass       
    ------------   -----------------  -----------------  -----------------  -----------------
         O           -2.763261453986    -1.245333495200    -0.136492539262    15.994914619570
         H           -1.123107123986    -2.063836135200    -0.034484869262     1.007825032230
         H           -3.807452833986    -2.088611685200     1.078857190738     1.007825032230

  Running in c1 symmetry.

  Rotational constants: A =     17.22658  B =      0.35254  C =      0.35060 [cm^-1]
  Rotational constants: A = 516439.84588  B =  10569.00629  C =  10510.60524 [MHz]
  Nuclear repulsion =    9.119928278805013

  Charge       = 0
  Multiplicity = 1
  Electrons    = 10
  Nalpha       = 5
  Nbeta        = 5

  ==> Algorithm <==

  SCF Algorithm Type is DF.
  DIIS enabled.
  MOM disabled.
  Fractional occupation disabled.
  Guess Type is SAD.
  Energy threshold   = 1.00e-06
  Density threshold  = 1.00e-06
  Integral threshold = 1.00e-12

  ==> Primary Basis <==

  Basis Set: STO-3G
    Blend: STO-3G
    Number of shells: 5
    Number of basis functions: 7
    Number of Cartesian functions: 7
    Spherical Harmonics?: true
    Max angular momentum: 1

   => Loading Basis Set <=

    Name: (STO-3G AUX)
    Role: JKFIT
    Keyword: DF_BASIS_SCF
    atoms 1   entry O          line   318 file /mnt/optane/ben/miniconda3/envs/qcmanybody/share/psi4/basis/def2-universal-jkfit.gbs 
    atoms 2-3 entry H          line    18 file /mnt/optane/ben/miniconda3/envs/qcmanybody/share/psi4/basis/def2-universal-jkfit.gbs 

  ==> Integral Setup <==

  DFHelper Memory: AOs need 0.000 GiB; user supplied 0.366 GiB. 
  Using in-core AOs.

  ==> MemDFJK: Density-Fitted J/K Matrices <==

    J tasked:                   Yes
    K tasked:                   Yes
    wK tasked:                   No
    OpenMP threads:               1
    Memory [MiB]:               375
    Algorithm:                 Core
    Schwarz Cutoff:           1E-12
    Mask sparsity (%):       0.0000
    Fitting Condition:        1E-10

   => Auxiliary Basis Set <=

  Basis Set: (STO-3G AUX)
    Blend: DEF2-UNIVERSAL-JKFIT
    Number of shells: 37
    Number of basis functions: 113
    Number of Cartesian functions: 133
    Spherical Harmonics?: true
    Max angular momentum: 4

  Minimum eigenvalue in the overlap matrix is 3.4706319112E-01.
  Reciprocal condition number of the overlap matrix is 1.8103780232E-01.
    Using symmetric orthogonalization.

  ==> Pre-Iterations <==

  SCF Guess: Superposition of Atomic Densities via on-the-fly atomic UHF (no occupation information).

   -------------------------
    Irrep   Nso     Nmo    
   -------------------------
     A          7       7 
   -------------------------
    Total       7       7
   -------------------------

  ==> Iterations <==

                           Total Energy        Delta E     RMS |[F,P]|

   @DF-RHF iter SAD:   -74.20292818616862   -7.42029e+01   0.00000e+00 
   @DF-RHF iter   1:   -74.91358954105664   -7.10661e-01   3.55337e-02 ADIIS/DIIS
   @DF-RHF iter   2:   -74.96245166050954   -4.88621e-02   5.41141e-03 ADIIS/DIIS
   @DF-RHF iter   3:   -74.96332927541215   -8.77615e-04   1.28048e-03 ADIIS/DIIS
   @DF-RHF iter   4:   -74.96340075172334   -7.14763e-05   1.32778e-04 ADIIS/DIIS
   @DF-RHF iter   5:   -74.96340207808483   -1.32636e-06   8.90282e-06 DIIS
   @DF-RHF iter   6:   -74.96340208274736   -4.66254e-09   5.25930e-07 DIIS
  Energy and wave function converged.


  ==> Post-Iterations <==

    Orbital Energies [Eh]
    ---------------------

    Doubly Occupied:                                                      

       1A    -20.241218     2A     -1.263189     3A     -0.615741  
       4A     -0.449250     5A     -0.389851  

    Virtual:                                                              

       6A      0.595605     7A      0.737218  

    Final Occupation by Irrep:
              A 
    DOCC [     5 ]
    NA   [     5 ]
    NB   [     5 ]

  @DF-RHF Final Energy:   -74.96340208274736

   => Energetics <=

    Nuclear Repulsion Energy =              9.1199282788050127
    One-Electron Energy =                -122.2481779526626298
    Two-Electron Energy =                  38.1648475911102594
    Total Energy =                        -74.9634020827473648

Computation Completed


Properties will be evaluated at   0.000000,   0.000000,   0.000000 [a0]

Properties computed using the SCF density matrix


 Multipole Moments:

 ------------------------------------------------------------------------------------
     Multipole            Electronic (a.u.)      Nuclear  (a.u.)        Total (a.u.)
 ------------------------------------------------------------------------------------

 L = 1.  Multiply by 2.5417464519 to convert [e a0] to [Debye]
 Dipole X            :         27.2103447          -27.0366516            0.1736931
 Dipole Y            :         13.6080032          -14.1151158           -0.5071125
 Dipole Z            :          0.4528942           -0.0475680            0.4053262
 Magnitude           :                                                    0.6720281

 ------------------------------------------------------------------------------------

*** tstop() called on pyra at Mon Feb 12 16:15:57 2024
Module time:
	user time   =       0.10 seconds =       0.00 minutes
	system time =       0.01 seconds =       0.00 minutes
	total time  =          0 seconds =       0.00 minutes
Total time:
	user time   =       0.10 seconds =       0.00 minutes
	system time =       0.01 seconds =       0.00 minutes
	total time  =          0 seconds =       0.00 minutes

    Psi4 stopped on: Monday, 12 February 2024 04:15PM
    Psi4 wall time for execution: 0:00:00.13


    -----------------------------------------------------------------------
          Psi4: An Open-Source Ab Initio Electronic Structure Package
                               Psi4 1.9 release

                         Git: Rev {} zzzzzzz 


    D. G. A. Smith, L. A. Burns, A. C. Simmonett, R. M. Parrish,
    M. C. Schieber, R. Galvelis, P. Kraus, H. Kruse, R. Di Remigio,
    A. Alenaizan, A. M. James, S. Lehtola, J. P. Misiewicz, M. Scheurer,
    R. A. Shaw, J. B. Schriber, Y. Xie, Z. L. Glick, D. A. Sirianni,
    J. S. O'Brien, J. M. Waldrop, A. Kumar, E. G. Hohenstein,
    B. P. Pritchard, B. R. Brooks, H. F. Schaefer III, A. Yu. Sokolov,
    K. Patkowski, A. E. DePrince III, U. Bozkaya, R. A. King,
    F. A. Evangelista, J. M. Turney, T. D. Crawford, C. D. Sherrill,
    J. Chem. Phys. 152(18) 184108 (2020). https://doi.org/10.1063/5.0006002

                            Additional Code Authors
    E. T. Seidl, C. L. Janssen, E. F. Valeev, M. L. Leininger,
    J. F. Gonthier, R. M. Richard, H. R. McAlexander, M. Saitow, X. Wang,
    P. Verma, M. H. Lechner, A. Jiang, S. Behnle, A. G. Heide,
    M. F. Herbst, and D. L. Poole

             Previous Authors, Complete List of Code Contributors,
                       and Citations for Specific Modules
    https://github.com/psi4/psi4/blob/master/codemeta.json
    https://github.com/psi4/psi4/graphs/contributors
    http://psicode.org/psi4manual/master/introduction.html#citing-psifour

    -----------------------------------------------------------------------


    Psi4 started on: Monday, 12 February 2024 04:15PM

    Process ID: 123522
    Host:       pyra
    PSIDATADIR: /mnt/optane/ben/miniconda3/envs/qcmanybody/share/psi4
    Memory:     500.0 MiB
    Threads:    1
    
  ==> Input QCSchema <==

--------------------------------------------------------------------------
{'driver': 'energy',
 'extras': {'psiapi': True, 'wfn_qcvars_only': True},
 'id': None,
 'keywords': {'CC_TYPE': 'DF', 'DF_BASIS_MP2': 'DEF2-QZVPP-RI', 'function_kwargs': {}},
 'model': {'basis': 'sto-3g', 'method': 'scf'},
 'molecule': {'atom_labels': ['', '', ''],
              'atomic_numbers': [8, 1, 1],
              'extras': {},
              'fix_com': True,
              'fix_orientation': True,
              'fragment_charges': [0.0],
              'fragment_multiplicities': [1],
              'fragments': [[0, 1, 2]],
              'geometry': [0.29175008601361585, 3.0071998147996597, 0.22103827073768123, -1.2120596939863841,
                           1.95665256479966, 0.12098636073768124, 0.10049127601361584, 4.2480247147996595,
                           -1.0842676692623188],
              'mass_numbers': [16, 1, 1],
              'masses': [15.99491461957, 1.00782503223, 1.00782503223],
              'molecular_charge': 0.0,
              'molecular_multiplicity': 1,
              'name': 'h2o_trimer',
              'provenance': {'creator': 'QCElemental',
                             'routine': 'qcelemental.molparse.from_string',
                             'version': '0.27.1'},
              'real': [True, True, True],
              'schema_name': 'qcschema_molecule',
              'schema_version': 2,
              'symbols': ['O', 'H', 'H'],
              'validated': True},
 'protocols': {'stdout': True},
 'provenance': {'creator': 'QCElemental', 'routine': 'qcelemental.models.results', 'version': '0.27.1'},
 'schema_name': 'qcschema_input',
 'schema_version': 1}
--------------------------------------------------------------------------

Scratch directory: /tmp/
   => Libint2 <=

    Primary   basis highest AM E, G, H:  5, 4, 3
    Auxiliary basis highest AM E, G, H:  6, 5, 4
    Onebody   basis highest AM E, G, H:  6, 5, 4
    Solid Harmonics ordering:            gaussian

*** tstart() called on pyra
*** at Mon Feb 12 16:15:57 2024

   => Loading Basis Set <=

    Name: STO-3G
    Role: ORBITAL
    Keyword: BASIS
    atoms 1   entry O          line    81 file /mnt/optane/ben/miniconda3/envs/qcmanybody/share/psi4/basis/sto-3g.gbs 
    atoms 2-3 entry H          line    19 file /mnt/optane/ben/miniconda3/envs/qcmanybody/share/psi4/basis/sto-3g.gbs 


         ---------------------------------------------------------
                                   SCF
               by Justin Turney, Rob Parrish, Andy Simmonett
                          and Daniel G. A. Smith
                              RHF Reference
                        1 Threads,    500 MiB Core
         ---------------------------------------------------------

  ==> Geometry <==

    Molecular point group: c1
    Full point group: C1

    Geometry (in Bohr), charge = 0, multiplicity = 1:

       Center              X                  Y                   Z               Mass       
    ------------   -----------------  -----------------  -----------------  -----------------
         O            0.291750086014     3.007199814800     0.221038270738    15.994914619570
         H           -1.212059693986     1.956652564800     0.120986360738     1.007825032230
         H            0.100491276014     4.248024714800    -1.084267669262     1.007825032230

  Running in c1 symmetry.

  Rotational constants: A =     16.21999  B =      0.35551  C =      0.35411 [cm^-1]
  Rotational constants: A = 486263.11601  B =  10657.90701  C =  10615.85257 [MHz]
  Nuclear repulsion =    9.116312738955253

  Charge       = 0
  Multiplicity = 1
  Electrons    = 10
  Nalpha       = 5
  Nbeta        = 5

  ==> Algorithm <==

  SCF Algorithm Type is DF.
  DIIS enabled.
  MOM disabled.
  Fractional occupation disabled.
  Guess Type is SAD.
  Energy threshold   = 1.00e-06
  Density threshold  = 1.00e-06
  Integral threshold = 1.00e-12

  ==> Primary Basis <==

  Basis Set: STO-3G
    Blend: STO-3G
    Number of shells: 5
    Number of basis functions: 7
    Number of Cartesian functions: 7
    Spherical Harmonics?: true
    Max angular momentum: 1

   => Loading Basis Set <=

    Name: (STO-3G AUX)
    Role: JKFIT
    Keyword: DF_BASIS_SCF
    atoms 1   entry O          line   318 file /mnt/optane/ben/miniconda3/envs/qcmanybody/share/psi4/basis/def2-universal-jkfit.gbs 
    atoms 2-3 entry H          line    18 file /mnt/optane/ben/miniconda3/envs/qcmanybody/share/psi4/basis/def2-universal-jkfit.gbs 

  ==> Integral Setup <==

  DFHelper Memory: AOs need 0.000 GiB; user supplied 0.366 GiB. 
  Using in-core AOs.

  ==> MemDFJK: Density-Fitted J/K Matrices <==

    J tasked:                   Yes
    K tasked:                   Yes
    wK tasked:                   No
    OpenMP threads:               1
    Memory [MiB]:               375
    Algorithm:                 Core
    Schwarz Cutoff:           1E-12
    Mask sparsity (%):       0.0000
    Fitting Condition:        1E-10

   => Auxiliary Basis Set <=

  Basis Set: (STO-3G AUX)
    Blend: DEF2-UNIVERSAL-JKFIT
    Number of shells: 37
    Number of basis functions: 113
    Number of Cartesian functions: 133
    Spherical Harmonics?: true
    Max angular momentum: 4

  Minimum eigenvalue in the overlap matrix is 3.4730300753E-01.
  Reciprocal condition number of the overlap matrix is 1.8113509098E-01.
    Using symmetric orthogonalization.

  ==> Pre-Iterations <==

  SCF Guess: Superposition of Atomic Densities via on-the-fly atomic UHF (no occupation information).

   -------------------------
    Irrep   Nso     Nmo    
   -------------------------
     A          7       7 
   -------------------------
    Total       7       7
   -------------------------

  ==> Iterations <==

                           Total Energy        Delta E     RMS |[F,P]|

   @DF-RHF iter SAD:   -74.20201476670530   -7.42020e+01   0.00000e+00 
   @DF-RHF iter   1:   -74.91358540757331   -7.11571e-01   3.55775e-02 ADIIS/DIIS
   @DF-RHF iter   2:   -74.96259246477783   -4.90071e-02   5.42254e-03 ADIIS/DIIS
   @DF-RHF iter   3:   -74.96347122716629   -8.78762e-04   1.27910e-03 ADIIS/DIIS
   @DF-RHF iter   4:   -74.96354236312604   -7.11360e-05   1.31499e-04 ADIIS/DIIS
   @DF-RHF iter   5:   -74.96354366330354   -1.30018e-06   8.95799e-06 DIIS
   @DF-RHF iter   6:   -74.96354366802744   -4.72390e-09   5.19621e-07 DIIS
  Energy and wave function converged.


  ==> Post-Iterations <==

    Orbital Energies [Eh]
    ---------------------

    Doubly Occupied:                                                      

       1A    -20.241635     2A     -1.263272     3A     -0.615118  
       4A     -0.449801     5A     -0.390021  

    Virtual:                                                              

       6A      0.595613     7A      0.735987  

    Final Occupation by Irrep:
              A 
    DOCC [     5 ]
    NA   [     5 ]
    NB   [     5 ]

  @DF-RHF Final Energy:   -74.96354366802744

   => Energetics <=

    Nuclear Repulsion Energy =              9.1163127389552532
    One-Electron Energy =                -122.2400369694908306
    Two-Electron Energy =                  38.1601805625081241
    Total Energy =                        -74.9635436680274552

Computation Completed


Properties will be evaluated at   0.000000,   0.000000,   0.000000 [a0]

Properties computed using the SCF density matrix


 Multipole Moments:

 ------------------------------------------------------------------------------------
     Multipole            Electronic (a.u.)      Nuclear  (a.u.)        Total (a.u.)
 ------------------------------------------------------------------------------------

 L = 1.  Multiply by 2.5417464519 to convert [e a0] to [Debye]
 Dipole X            :         -1.7341041            1.2224323           -0.5116719
 Dipole Y            :        -30.1971839           30.2622758            0.0650919
 Dipole Z            :         -1.2364439            0.8050249           -0.4314190
 Magnitude           :                                                    0.6724339

 ------------------------------------------------------------------------------------

*** tstop() called on pyra at Mon Feb 12 16:15:57 2024
Module time:
	user time   =       0.07 seconds =       0.00 minutes
	system time =       0.00 seconds =       0.00 minutes
	total time  =          0 seconds =       0.00 minutes
Total time:
	user time   =       0.19 seconds =       0.00 minutes
	system time =       0.01 seconds =       0.00 minutes
	total time  =          0 seconds =       0.00 minutes

    Psi4 stopped on: Monday, 12 February 2024 04:15PM
    Psi4 wall time for execution: 0:00:00.08


    -----------------------------------------------------------------------
          Psi4: An Open-Source Ab Initio Electronic Structure Package
                               Psi4 1.9 release

                         Git: Rev {} zzzzzzz 


    D. G. A. Smith, L. A. Burns, A. C. Simmonett, R. M. Parrish,
    M. C. Schieber, R. Galvelis, P. Kraus, H. Kruse, R. Di Remigio,
    A. Alenaizan, A. M. James, S. Lehtola, J. P. Misiewicz, M. Scheurer,
    R. A. Shaw, J. B. Schriber, Y. Xie, Z. L. Glick, D. A. Sirianni,
    J. S. O'Brien, J. M. Waldrop, A. Kumar, E. G. Hohenstein,
    B. P. Pritchard, B. R. Brooks, H. F. Schaefer III, A. Yu. Sokolov,
    K. Patkowski, A. E. DePrince III, U. Bozkaya, R. A. King,
    F. A. Evangelista, J. M. Turney, T. D. Crawford, C. D. Sherrill,
    J. Chem. Phys. 152(18) 184108 (2020). https://doi.org/10.1063/5.0006002

                            Additional Code Authors
    E. T. Seidl, C. L. Janssen, E. F. Valeev, M. L. Leininger,
    J. F. Gonthier, R. M. Richard, H. R. McAlexander, M. Saitow, X. Wang,
    P. Verma, M. H. Lechner, A. Jiang, S. Behnle, A. G. Heide,
    M. F. Herbst, and D. L. Poole

             Previous Authors, Complete List of Code Contributors,
                       and Citations for Specific Modules
    https://github.com/psi4/psi4/blob/master/codemeta.json
    https://github.com/psi4/psi4/graphs/contributors
    http://psicode.org/psi4manual/master/introduction.html#citing-psifour

    -----------------------------------------------------------------------


    Psi4 started on: Monday, 12 February 2024 04:15PM

    Process ID: 123522
    Host:       pyra
    PSIDATADIR: /mnt/optane/ben/miniconda3/envs/qcmanybody/share/psi4
    Memory:     500.0 MiB
    Threads:    1
    
  ==> Input QCSchema <==

--------------------------------------------------------------------------
{'driver': 'energy',
 'extras': {'psiapi': True, 'wfn_qcvars_only': True},
 'id': None,
 'keywords': {'CC_TYPE': 'DF', 'DF_BASIS_MP2': 'DEF2-QZVPP-RI', 'function_kwargs': {}},
 'model': {'basis': 'sto-3g', 'method': 'scf'},
 'molecule': {'atom_labels': ['', '', ''],
              'atomic_numbers': [8, 1, 1],
              'extras': {},
              'fix_com': True,
              'fix_orientation': True,
              'fragment_charges': [0.0],
              'fragment_multiplicities': [1],
              'fragments': [[0, 1, 2]],
              'geometry': [2.469716926013616, -1.75593382520034, -0.15297571926231876, 3.764153386013616,
                           -2.2158104652003403, 1.0264141607376813, 2.306454086013616, 0.0694280147996599,
                           -0.021471609262318753],
              'mass_numbers': [16, 1, 1],
              'masses': [15.99491461957, 1.00782503223, 1.00782503223],
              'molecular_charge': 0.0,
              'molecular_multiplicity': 1,
              'name': 'h2o_trimer',
              'provenance': {'creator': 'QCElemental',
                             'routine': 'qcelemental.molparse.from_string',
                             'version': '0.27.1'},
              'real': [True, True, True],
              'schema_name': 'qcschema_molecule',
              'schema_version': 2,
              'symbols': ['O', 'H', 'H'],
              'validated': True},
 'protocols': {'stdout': True},
 'provenance': {'creator': 'QCElemental', 'routine': 'qcelemental.models.results', 'version': '0.27.1'},
 'schema_name': 'qcschema_input',
 'schema_version': 1}
--------------------------------------------------------------------------

Scratch directory: /tmp/
   => Libint2 <=

    Primary   basis highest AM E, G, H:  5, 4, 3
    Auxiliary basis highest AM E, G, H:  6, 5, 4
    Onebody   basis highest AM E, G, H:  6, 5, 4
    Solid Harmonics ordering:            gaussian

*** tstart() called on pyra
*** at Mon Feb 12 16:15:57 2024

   => Loading Basis Set <=

    Name: STO-3G
    Role: ORBITAL
    Keyword: BASIS
    atoms 1   entry O          line    81 file /mnt/optane/ben/miniconda3/envs/qcmanybody/share/psi4/basis/sto-3g.gbs 
    atoms 2-3 entry H          line    19 file /mnt/optane/ben/miniconda3/envs/qcmanybody/share/psi4/basis/sto-3g.gbs 


         ---------------------------------------------------------
                                   SCF
               by Justin Turney, Rob Parrish, Andy Simmonett
                          and Daniel G. A. Smith
                              RHF Reference
                        1 Threads,    500 MiB Core
         ---------------------------------------------------------

  ==> Geometry <==

    Molecular point group: c1
    Full point group: C1

    Geometry (in Bohr), charge = 0, multiplicity = 1:

       Center              X                  Y                   Z               Mass       
    ------------   -----------------  -----------------  -----------------  -----------------
         O            2.469716926014    -1.755933825200    -0.152975719262    15.994914619570
         H            3.764153386014    -2.215810465200     1.026414160738     1.007825032230
         H            2.306454086014     0.069428014800    -0.021471609262     1.007825032230

  Running in c1 symmetry.

  Rotational constants: A =     17.83186  B =      0.35268  C =      0.35051 [cm^-1]
  Rotational constants: A = 534585.57155  B =  10573.02943  C =  10508.02043 [MHz]
  Nuclear repulsion =    9.116778471315827

  Charge       = 0
  Multiplicity = 1
  Electrons    = 10
  Nalpha       = 5
  Nbeta        = 5

  ==> Algorithm <==

  SCF Algorithm Type is DF.
  DIIS enabled.
  MOM disabled.
  Fractional occupation disabled.
  Guess Type is SAD.
  Energy threshold   = 1.00e-06
  Density threshold  = 1.00e-06
  Integral threshold = 1.00e-12

  ==> Primary Basis <==

  Basis Set: STO-3G
    Blend: STO-3G
    Number of shells: 5
    Number of basis functions: 7
    Number of Cartesian functions: 7
    Spherical Harmonics?: true
    Max angular momentum: 1

   => Loading Basis Set <=

    Name: (STO-3G AUX)
    Role: JKFIT
    Keyword: DF_BASIS_SCF
    atoms 1   entry O          line   318 file /mnt/optane/ben/miniconda3/envs/qcmanybody/share/psi4/basis/def2-universal-jkfit.gbs 
    atoms 2-3 entry H          line    18 file /mnt/optane/ben/miniconda3/envs/qcmanybody/share/psi4/basis/def2-universal-jkfit.gbs 

  ==> Integral Setup <==

  DFHelper Memory: AOs need 0.000 GiB; user supplied 0.366 GiB. 
  Using in-core AOs.

  ==> MemDFJK: Density-Fitted J/K Matrices <==

    J tasked:                   Yes
    K tasked:                   Yes
    wK tasked:                   No
    OpenMP threads:               1
    Memory [MiB]:               375
    Algorithm:                 Core
    Schwarz Cutoff:           1E-12
    Mask sparsity (%):       0.0000
    Fitting Condition:        1E-10

   => Auxiliary Basis Set <=

  Basis Set: (STO-3G AUX)
    Blend: DEF2-UNIVERSAL-JKFIT
    Number of shells: 37
    Number of basis functions: 113
    Number of Cartesian functions: 133
    Spherical Harmonics?: true
    Max angular momentum: 4

  Minimum eigenvalue in the overlap matrix is 3.4724660626E-01.
  Reciprocal condition number of the overlap matrix is 1.8115562909E-01.
    Using symmetric orthogonalization.

  ==> Pre-Iterations <==

  SCF Guess: Superposition of Atomic Densities via on-the-fly atomic UHF (no occupation information).

   -------------------------
    Irrep   Nso     Nmo    
   -------------------------
     A          7       7 
   -------------------------
    Total       7       7
   -------------------------

  ==> Iterations <==

                           Total Energy        Delta E     RMS |[F,P]|

   @DF-RHF iter SAD:   -74.20212050382801   -7.42021e+01   0.00000e+00 
   @DF-RHF iter   1:   -74.91356875496140   -7.11448e-01   3.55515e-02 ADIIS/DIIS
   @DF-RHF iter   2:   -74.96249631968959   -4.89276e-02   5.41710e-03 ADIIS/DIIS
   @DF-RHF iter   3:   -74.96337501459180   -8.78695e-04   1.28057e-03 ADIIS/DIIS
   @DF-RHF iter   4:   -74.96344646682041   -7.14522e-05   1.32519e-04 ADIIS/DIIS
   @DF-RHF iter   5:   -74.96344778826301   -1.32144e-06   8.94028e-06 DIIS
   @DF-RHF iter   6:   -74.96344779296989   -4.70688e-09   5.23764e-07 DIIS
  Energy and wave function converged.


  ==> Post-Iterations <==

    Orbital Energies [Eh]
    ---------------------

    Doubly Occupied:                                                      

       1A    -20.241351     2A     -1.263093     3A     -0.615460  
       4A     -0.449355     5A     -0.389879  

    Virtual:                                                              

       6A      0.595326     7A      0.736674  

    Final Occupation by Irrep:
              A 
    DOCC [     5 ]
    NA   [     5 ]
    NB   [     5 ]

  @DF-RHF Final Energy:   -74.96344779296989

   => Energetics <=

    Nuclear Repulsion Energy =              9.1167784713158273
    One-Electron Energy =                -122.2421962780690308
    Two-Electron Energy =                  38.1619700137833320
    Total Energy =                        -74.9634477929698733

Computation Completed


Properties will be evaluated at   0.000000,   0.000000,   0.000000 [a0]

Properties computed using the SCF density matrix


 Multipole Moments:

 ------------------------------------------------------------------------------------
     Multipole            Electronic (a.u.)      Nuclear  (a.u.)        Total (a.u.)
 ------------------------------------------------------------------------------------

 L = 1.  Multiply by 2.5417464519 to convert [e a0] to [Debye]
 Dipole X            :        -25.4788725           25.8283429            0.3494704
 Dipole Y            :         16.6026512          -16.1938531            0.4087981
 Dipole Z            :          0.6217860           -0.2188632            0.4029228
 Magnitude           :                                                    0.6720061

 ------------------------------------------------------------------------------------

*** tstop() called on pyra at Mon Feb 12 16:15:57 2024
Module time:
	user time   =       0.06 seconds =       0.00 minutes
	system time =       0.00 seconds =       0.00 minutes
	total time  =          0 seconds =       0.00 minutes
Total time:
	user time   =       0.27 seconds =       0.00 minutes
	system time =       0.01 seconds =       0.00 minutes
	total time  =          0 seconds =       0.00 minutes

    Psi4 stopped on: Monday, 12 February 2024 04:15PM
    Psi4 wall time for execution: 0:00:00.08


    -----------------------------------------------------------------------
          Psi4: An Open-Source Ab Initio Electronic Structure Package
                               Psi4 1.9 release

                         Git: Rev {} zzzzzzz 


    D. G. A. Smith, L. A. Burns, A. C. Simmonett, R. M. Parrish,
    M. C. Schieber, R. Galvelis, P. Kraus, H. Kruse, R. Di Remigio,
    A. Alenaizan, A. M. James, S. Lehtola, J. P. Misiewicz, M. Scheurer,
    R. A. Shaw, J. B. Schriber, Y. Xie, Z. L. Glick, D. A. Sirianni,
    J. S. O'Brien, J. M. Waldrop, A. Kumar, E. G. Hohenstein,
    B. P. Pritchard, B. R. Brooks, H. F. Schaefer III, A. Yu. Sokolov,
    K. Patkowski, A. E. DePrince III, U. Bozkaya, R. A. King,
    F. A. Evangelista, J. M. Turney, T. D. Crawford, C. D. Sherrill,
    J. Chem. Phys. 152(18) 184108 (2020). https://doi.org/10.1063/5.0006002

                            Additional Code Authors
    E. T. Seidl, C. L. Janssen, E. F. Valeev, M. L. Leininger,
    J. F. Gonthier, R. M. Richard, H. R. McAlexander, M. Saitow, X. Wang,
    P. Verma, M. H. Lechner, A. Jiang, S. Behnle, A. G. Heide,
    M. F. Herbst, and D. L. Poole

             Previous Authors, Complete List of Code Contributors,
                       and Citations for Specific Modules
    https://github.com/psi4/psi4/blob/master/codemeta.json
    https://github.com/psi4/psi4/graphs/contributors
    http://psicode.org/psi4manual/master/introduction.html#citing-psifour

    -----------------------------------------------------------------------


    Psi4 started on: Monday, 12 February 2024 04:15PM

    Process ID: 123522
    Host:       pyra
    PSIDATADIR: /mnt/optane/ben/miniconda3/envs/qcmanybody/share/psi4
    Memory:     500.0 MiB
    Threads:    1
    
  ==> Input QCSchema <==

--------------------------------------------------------------------------
{'driver': 'energy',
 'extras': {'psiapi': True, 'wfn_qcvars_only': True},
 'id': None,
 'keywords': {'CC_TYPE': 'DF', 'DF_BASIS_MP2': 'DEF2-QZVPP-RI', 'function_kwargs': {}},
 'model': {'basis': 'sto-3g', 'method': 'scf'},
 'molecule': {'atom_labels': ['', '', '', '', '', '', '', '', ''],
              'atomic_numbers': [8, 1, 1, 8, 1, 1, 8, 1, 1],
              'extras': {},
              'fix_com': True,
              'fix_orientation': True,
              'fragment_charges': [0.0, 0.0, 0.0],
              'fragment_multiplicities': [1, 1, 1],
              'fragments': [[0, 1, 2], [3, 4, 5], [6, 7, 8]],
              'geometry': [-2.763261453986384, -1.24533349520034, -0.13649253926231877, -1.1231071239863841,
                           -2.06383613520034, -0.03448486926231875, -3.807452833986384, -2.0886116852003402,
                           1.0788571907376814, 2.469716926013616, -1.75593382520034, -0.15297571926231876,
                           3.764153386013616, -2.2158104652003403, 1.0264141607376813, 2.306454086013616,
                           0.0694280147996599, -0.021471609262318753, 0.29175008601361585, 3.0071998147996597,
                           0.22103827073768123, -1.2120596939863841, 1.95665256479966, 0.12098636073768124,
                           0.10049127601361584, 4.2480247147996595, -1.0842676692623188],
              'mass_numbers': [16, 1, 1, 16, 1, 1, 16, 1, 1],
              'masses': [15.99491461957, 1.00782503223, 1.00782503223, 15.99491461957, 1.00782503223, 1.00782503223,
                         15.99491461957, 1.00782503223, 1.00782503223],
              'molecular_charge': 0.0,
              'molecular_multiplicity': 1,
              'name': 'h2o_trimer',
              'provenance': {'creator': 'QCElemental',
                             'routine': 'qcelemental.molparse.from_string',
                             'version': '0.27.1'},
              'real': [True, True, True, False, False, False, False, False, False],
              'schema_name': 'qcschema_molecule',
              'schema_version': 2,
              'symbols': ['O', 'H', 'H', 'O', 'H', 'H', 'O', 'H', 'H'],
              'validated': True},
 'protocols': {'stdout': True},
 'provenance': {'creator': 'QCElemental', 'routine': 'qcelemental.models.results', 'version': '0.27.1'},
 'schema_name': 'qcschema_input',
 'schema_version': 1}
--------------------------------------------------------------------------

Scratch directory: /tmp/
   => Libint2 <=

    Primary   basis highest AM E, G, H:  5, 4, 3
    Auxiliary basis highest AM E, G, H:  6, 5, 4
    Onebody   basis highest AM E, G, H:  6, 5, 4
    Solid Harmonics ordering:            gaussian

*** tstart() called on pyra
*** at Mon Feb 12 16:15:57 2024

   => Loading Basis Set <=

    Name: STO-3G
    Role: ORBITAL
    Keyword: BASIS
    atoms 1, 4, 7       entry O          line    81 file /mnt/optane/ben/miniconda3/envs/qcmanybody/share/psi4/basis/sto-3g.gbs 
    atoms 2-3, 5-6, 8-9 entry H          line    19 file /mnt/optane/ben/miniconda3/envs/qcmanybody/share/psi4/basis/sto-3g.gbs 


         ---------------------------------------------------------
                                   SCF
               by Justin Turney, Rob Parrish, Andy Simmonett
                          and Daniel G. A. Smith
                              RHF Reference
                        1 Threads,    500 MiB Core
         ---------------------------------------------------------

  ==> Geometry <==

    Molecular point group: c1
    Full point group: C1

    Geometry (in Bohr), charge = 0, multiplicity = 1:

       Center              X                  Y                   Z               Mass       
    ------------   -----------------  -----------------  -----------------  -----------------
         O           -2.763261453986    -1.245333495200    -0.136492539262    15.994914619570
         H           -1.123107123986    -2.063836135200    -0.034484869262     1.007825032230
         H           -3.807452833986    -2.088611685200     1.078857190738     1.007825032230
      Gh(O)           2.469716926014    -1.755933825200    -0.152975719262    15.994914619570
      Gh(H)           3.764153386014    -2.215810465200     1.026414160738     1.007825032230
      Gh(H)           2.306454086014     0.069428014800    -0.021471609262     1.007825032230
      Gh(O)           0.291750086014     3.007199814800     0.221038270738    15.994914619570
      Gh(H)          -1.212059693986     1.956652564800     0.120986360738     1.007825032230
      Gh(H)           0.100491276014     4.248024714800    -1.084267669262     1.007825032230

  Running in c1 symmetry.

  Rotational constants: A =      0.23213  B =      0.22920  C =      0.11739 [cm^-1]
  Rotational constants: A =   6958.95982  B =   6871.15159  C =   3519.17461 [MHz]
  Nuclear repulsion =    9.119928278805013

  Charge       = 0
  Multiplicity = 1
  Electrons    = 10
  Nalpha       = 5
  Nbeta        = 5

  ==> Algorithm <==

  SCF Algorithm Type is DF.
  DIIS enabled.
  MOM disabled.
  Fractional occupation disabled.
  Guess Type is SAD.
  Energy threshold   = 1.00e-06
  Density threshold  = 1.00e-06
  Integral threshold = 1.00e-12

  ==> Primary Basis <==

  Basis Set: STO-3G
    Blend: STO-3G
    Number of shells: 15
    Number of basis functions: 21
    Number of Cartesian functions: 21
    Spherical Harmonics?: true
    Max angular momentum: 1

   => Loading Basis Set <=

    Name: (STO-3G AUX)
    Role: JKFIT
    Keyword: DF_BASIS_SCF
    atoms 1, 4, 7       entry O          line   318 file /mnt/optane/ben/miniconda3/envs/qcmanybody/share/psi4/basis/def2-universal-jkfit.gbs 
    atoms 2-3, 5-6, 8-9 entry H          line    18 file /mnt/optane/ben/miniconda3/envs/qcmanybody/share/psi4/basis/def2-universal-jkfit.gbs 

  ==> Integral Setup <==

  DFHelper Memory: AOs need 0.002 GiB; user supplied 0.366 GiB. 
  Using in-core AOs.

  ==> MemDFJK: Density-Fitted J/K Matrices <==

    J tasked:                   Yes
    K tasked:                   Yes
    wK tasked:                   No
    OpenMP threads:               1
    Memory [MiB]:               375
    Algorithm:                 Core
    Schwarz Cutoff:           1E-12
    Mask sparsity (%):       1.3605
    Fitting Condition:        1E-10

   => Auxiliary Basis Set <=

  Basis Set: (STO-3G AUX)
    Blend: DEF2-UNIVERSAL-JKFIT
    Number of shells: 111
    Number of basis functions: 339
    Number of Cartesian functions: 399
    Spherical Harmonics?: true
    Max angular momentum: 4

  Minimum eigenvalue in the overlap matrix is 3.3916085987E-01.
  Reciprocal condition number of the overlap matrix is 1.6340921935E-01.
    Using symmetric orthogonalization.

  ==> Pre-Iterations <==

  SCF Guess: Superposition of Atomic Densities via on-the-fly atomic UHF (no occupation information).

   -------------------------
    Irrep   Nso     Nmo    
   -------------------------
     A         21      21 
   -------------------------
    Total      21      21
   -------------------------

  ==> Iterations <==

                           Total Energy        Delta E     RMS |[F,P]|

   @DF-RHF iter SAD:   -74.20292908467808   -7.42029e+01   0.00000e+00 
   @DF-RHF iter   1:   -74.92263609767267   -7.19707e-01   1.16865e-02 ADIIS/DIIS
   @DF-RHF iter   2:   -74.96927826367009   -4.66422e-02   1.98794e-03 ADIIS/DIIS
   @DF-RHF iter   3:   -74.97033443881585   -1.05618e-03   4.54096e-04 ADIIS/DIIS
   @DF-RHF iter   4:   -74.97041923739818   -8.47986e-05   4.58523e-05 DIIS
   @DF-RHF iter   5:   -74.97042060383518   -1.36644e-06   8.79325e-06 DIIS
   @DF-RHF iter   6:   -74.97042065748340   -5.36482e-08   4.96264e-07 DIIS
  Energy and wave function converged.


  ==> Post-Iterations <==

    Orbital Energies [Eh]
    ---------------------

    Doubly Occupied:                                                      

       1A    -20.253702     2A     -1.269155     3A     -0.621191  
       4A     -0.455830     5A     -0.396005  

    Virtual:                                                              

       6A      0.465977     7A      0.565921     8A      0.620283  
       9A      0.743952    10A      0.976071    11A      1.052373  
      12A      1.331031    13A      1.404480    14A      2.536284  
      15A      2.553862    16A      2.893569    17A      3.009824  
      18A      3.267055    19A      3.329230    20A     31.229191  
      21A     31.307207  

    Final Occupation by Irrep:
              A 
    DOCC [     5 ]
    NA   [     5 ]
    NB   [     5 ]

  @DF-RHF Final Energy:   -74.97042065748340

   => Energetics <=

    Nuclear Repulsion Energy =              9.1199282788050127
    One-Electron Energy =                -122.1889008565003110
    Two-Electron Energy =                  38.0985519202118823
    Total Energy =                        -74.9704206574834018

Computation Completed


Properties will be evaluated at   0.000000,   0.000000,   0.000000 [a0]

Properties computed using the SCF density matrix


 Multipole Moments:

 ------------------------------------------------------------------------------------
     Multipole            Electronic (a.u.)      Nuclear  (a.u.)        Total (a.u.)
 ------------------------------------------------------------------------------------

 L = 1.  Multiply by 2.5417464519 to convert [e a0] to [Debye]
 Dipole X            :         27.1888123          -27.0366516            0.1521607
 Dipole Y            :         13.5562887          -14.1151158           -0.5588271
 Dipole Z            :          0.4571151           -0.0475680            0.4095471
 Magnitude           :                                                    0.7093443

 ------------------------------------------------------------------------------------

*** tstop() called on pyra at Mon Feb 12 16:15:57 2024
Module time:
	user time   =       0.15 seconds =       0.00 minutes
	system time =       0.00 seconds =       0.00 minutes
	total time  =          0 seconds =       0.00 minutes
Total time:
	user time   =       0.44 seconds =       0.01 minutes
	system time =       0.01 seconds =       0.00 minutes
	total time  =          0 seconds =       0.00 minutes

    Psi4 stopped on: Monday, 12 February 2024 04:15PM
    Psi4 wall time for execution: 0:00:00.16


    -----------------------------------------------------------------------
          Psi4: An Open-Source Ab Initio Electronic Structure Package
                               Psi4 1.9 release

                         Git: Rev {} zzzzzzz 


    D. G. A. Smith, L. A. Burns, A. C. Simmonett, R. M. Parrish,
    M. C. Schieber, R. Galvelis, P. Kraus, H. Kruse, R. Di Remigio,
    A. Alenaizan, A. M. James, S. Lehtola, J. P. Misiewicz, M. Scheurer,
    R. A. Shaw, J. B. Schriber, Y. Xie, Z. L. Glick, D. A. Sirianni,
    J. S. O'Brien, J. M. Waldrop, A. Kumar, E. G. Hohenstein,
    B. P. Pritchard, B. R. Brooks, H. F. Schaefer III, A. Yu. Sokolov,
    K. Patkowski, A. E. DePrince III, U. Bozkaya, R. A. King,
    F. A. Evangelista, J. M. Turney, T. D. Crawford, C. D. Sherrill,
    J. Chem. Phys. 152(18) 184108 (2020). https://doi.org/10.1063/5.0006002

                            Additional Code Authors
    E. T. Seidl, C. L. Janssen, E. F. Valeev, M. L. Leininger,
    J. F. Gonthier, R. M. Richard, H. R. McAlexander, M. Saitow, X. Wang,
    P. Verma, M. H. Lechner, A. Jiang, S. Behnle, A. G. Heide,
    M. F. Herbst, and D. L. Poole

             Previous Authors, Complete List of Code Contributors,
                       and Citations for Specific Modules
    https://github.com/psi4/psi4/blob/master/codemeta.json
    https://github.com/psi4/psi4/graphs/contributors
    http://psicode.org/psi4manual/master/introduction.html#citing-psifour

    -----------------------------------------------------------------------


    Psi4 started on: Monday, 12 February 2024 04:15PM

    Process ID: 123522
    Host:       pyra
    PSIDATADIR: /mnt/optane/ben/miniconda3/envs/qcmanybody/share/psi4
    Memory:     500.0 MiB
    Threads:    1
    
  ==> Input QCSchema <==

--------------------------------------------------------------------------
{'driver': 'energy',
 'extras': {'psiapi': True, 'wfn_qcvars_only': True},
 'id': None,
 'keywords': {'CC_TYPE': 'DF', 'DF_BASIS_MP2': 'DEF2-QZVPP-RI', 'function_kwargs': {}},
 'model': {'basis': 'sto-3g', 'method': 'scf'},
 'molecule': {'atom_labels': ['', '', '', '', '', '', '', '', ''],
              'atomic_numbers': [8, 1, 1, 8, 1, 1, 8, 1, 1],
              'extras': {},
              'fix_com': True,
              'fix_orientation': True,
              'fragment_charges': [0.0, 0.0, 0.0],
              'fragment_multiplicities': [1, 1, 1],
              'fragments': [[0, 1, 2], [3, 4, 5], [6, 7, 8]],
              'geometry': [-2.763261453986384, -1.24533349520034, -0.13649253926231877, -1.1231071239863841,
                           -2.06383613520034, -0.03448486926231875, -3.807452833986384, -2.0886116852003402,
                           1.0788571907376814, 2.469716926013616, -1.75593382520034, -0.15297571926231876,
                           3.764153386013616, -2.2158104652003403, 1.0264141607376813, 2.306454086013616,
                           0.0694280147996599, -0.021471609262318753, 0.29175008601361585, 3.0071998147996597,
                           0.22103827073768123, -1.2120596939863841, 1.95665256479966, 0.12098636073768124,
                           0.10049127601361584, 4.2480247147996595, -1.0842676692623188],
              'mass_numbers': [16, 1, 1, 16, 1, 1, 16, 1, 1],
              'masses': [15.99491461957, 1.00782503223, 1.00782503223, 15.99491461957, 1.00782503223, 1.00782503223,
                         15.99491461957, 1.00782503223, 1.00782503223],
              'molecular_charge': 0.0,
              'molecular_multiplicity': 1,
              'name': 'h2o_trimer',
              'provenance': {'creator': 'QCElemental',
                             'routine': 'qcelemental.molparse.from_string',
                             'version': '0.27.1'},
              'real': [False, False, False, True, True, True, False, False, False],
              'schema_name': 'qcschema_molecule',
              'schema_version': 2,
              'symbols': ['O', 'H', 'H', 'O', 'H', 'H', 'O', 'H', 'H'],
              'validated': True},
 'protocols': {'stdout': True},
 'provenance': {'creator': 'QCElemental', 'routine': 'qcelemental.models.results', 'version': '0.27.1'},
 'schema_name': 'qcschema_input',
 'schema_version': 1}
--------------------------------------------------------------------------

Scratch directory: /tmp/
   => Libint2 <=

    Primary   basis highest AM E, G, H:  5, 4, 3
    Auxiliary basis highest AM E, G, H:  6, 5, 4
    Onebody   basis highest AM E, G, H:  6, 5, 4
    Solid Harmonics ordering:            gaussian

*** tstart() called on pyra
*** at Mon Feb 12 16:15:57 2024

   => Loading Basis Set <=

    Name: STO-3G
    Role: ORBITAL
    Keyword: BASIS
    atoms 1, 4, 7       entry O          line    81 file /mnt/optane/ben/miniconda3/envs/qcmanybody/share/psi4/basis/sto-3g.gbs 
    atoms 2-3, 5-6, 8-9 entry H          line    19 file /mnt/optane/ben/miniconda3/envs/qcmanybody/share/psi4/basis/sto-3g.gbs 


         ---------------------------------------------------------
                                   SCF
               by Justin Turney, Rob Parrish, Andy Simmonett
                          and Daniel G. A. Smith
                              RHF Reference
                        1 Threads,    500 MiB Core
         ---------------------------------------------------------

  ==> Geometry <==

    Molecular point group: c1
    Full point group: C1

    Geometry (in Bohr), charge = 0, multiplicity = 1:

       Center              X                  Y                   Z               Mass       
    ------------   -----------------  -----------------  -----------------  -----------------
      Gh(O)          -2.763261453986    -1.245333495200    -0.136492539262    15.994914619570
      Gh(H)          -1.123107123986    -2.063836135200    -0.034484869262     1.007825032230
      Gh(H)          -3.807452833986    -2.088611685200     1.078857190738     1.007825032230
         O            2.469716926014    -1.755933825200    -0.152975719262    15.994914619570
         H            3.764153386014    -2.215810465200     1.026414160738     1.007825032230
         H            2.306454086014     0.069428014800    -0.021471609262     1.007825032230
      Gh(O)           0.291750086014     3.007199814800     0.221038270738    15.994914619570
      Gh(H)          -1.212059693986     1.956652564800     0.120986360738     1.007825032230
      Gh(H)           0.100491276014     4.248024714800    -1.084267669262     1.007825032230

  Running in c1 symmetry.

  Rotational constants: A =      0.23213  B =      0.22920  C =      0.11739 [cm^-1]
  Rotational constants: A =   6958.95982  B =   6871.15159  C =   3519.17461 [MHz]
  Nuclear repulsion =    9.116778471315827

  Charge       = 0
  Multiplicity = 1
  Electrons    = 10
  Nalpha       = 5
  Nbeta        = 5

  ==> Algorithm <==

  SCF Algorithm Type is DF.
  DIIS enabled.
  MOM disabled.
  Fractional occupation disabled.
  Guess Type is SAD.
  Energy threshold   = 1.00e-06
  Density threshold  = 1.00e-06
  Integral threshold = 1.00e-12

  ==> Primary Basis <==

  Basis Set: STO-3G
    Blend: STO-3G
    Number of shells: 15
    Number of basis functions: 21
    Number of Cartesian functions: 21
    Spherical Harmonics?: true
    Max angular momentum: 1

   => Loading Basis Set <=

    Name: (STO-3G AUX)
    Role: JKFIT
    Keyword: DF_BASIS_SCF
    atoms 1, 4, 7       entry O          line   318 file /mnt/optane/ben/miniconda3/envs/qcmanybody/share/psi4/basis/def2-universal-jkfit.gbs 
    atoms 2-3, 5-6, 8-9 entry H          line    18 file /mnt/optane/ben/miniconda3/envs/qcmanybody/share/psi4/basis/def2-universal-jkfit.gbs 

  ==> Integral Setup <==

  DFHelper Memory: AOs need 0.002 GiB; user supplied 0.366 GiB. 
  Using in-core AOs.

  ==> MemDFJK: Density-Fitted J/K Matrices <==

    J tasked:                   Yes
    K tasked:                   Yes
    wK tasked:                   No
    OpenMP threads:               1
    Memory [MiB]:               375
    Algorithm:                 Core
    Schwarz Cutoff:           1E-12
    Mask sparsity (%):       1.3605
    Fitting Condition:        1E-10

   => Auxiliary Basis Set <=

  Basis Set: (STO-3G AUX)
    Blend: DEF2-UNIVERSAL-JKFIT
    Number of shells: 111
    Number of basis functions: 339
    Number of Cartesian functions: 399
    Spherical Harmonics?: true
    Max angular momentum: 4

  Minimum eigenvalue in the overlap matrix is 3.3916085987E-01.
  Reciprocal condition number of the overlap matrix is 1.6340921935E-01.
    Using symmetric orthogonalization.

  ==> Pre-Iterations <==

  SCF Guess: Superposition of Atomic Densities via on-the-fly atomic UHF (no occupation information).

   -------------------------
    Irrep   Nso     Nmo    
   -------------------------
     A         21      21 
   -------------------------
    Total      21      21
   -------------------------

  ==> Iterations <==

                           Total Energy        Delta E     RMS |[F,P]|

   @DF-RHF iter SAD:   -74.20212107190864   -7.42021e+01   0.00000e+00 
   @DF-RHF iter   1:   -74.92187838020990   -7.19757e-01   1.17111e-02 ADIIS/DIIS
   @DF-RHF iter   2:   -74.96877048611971   -4.68921e-02   1.97672e-03 ADIIS/DIIS
   @DF-RHF iter   3:   -74.96981383617654   -1.04335e-03   4.51978e-04 ADIIS/DIIS
   @DF-RHF iter   4:   -74.96989751056037   -8.36744e-05   4.56833e-05 DIIS
   @DF-RHF iter   5:   -74.96989886789513   -1.35733e-06   8.68483e-06 DIIS
   @DF-RHF iter   6:   -74.96989892024986   -5.23547e-08   4.77503e-07 DIIS
  Energy and wave function converged.


  ==> Post-Iterations <==

    Orbital Energies [Eh]
    ---------------------

    Doubly Occupied:                                                      

       1A    -20.252744     2A     -1.268558     3A     -0.620442  
       4A     -0.455403     5A     -0.395553  

    Virtual:                                                              

       6A      0.463525     7A      0.563679     8A      0.622880  
       9A      0.746338    10A      0.974324    11A      1.049872  
      12A      1.326710    13A      1.406489    14A      2.543264  
      15A      2.552524    16A      2.887125    17A      3.009341  
      18A      3.264801    19A      3.331521    20A     31.228093  
      21A     31.307322  

    Final Occupation by Irrep:
              A 
    DOCC [     5 ]
    NA   [     5 ]
    NB   [     5 ]

  @DF-RHF Final Energy:   -74.96989892024986

   => Energetics <=

    Nuclear Repulsion Energy =              9.1167784713158273
    One-Electron Energy =                -122.1879242085054784
    Two-Electron Energy =                  38.1012468169397991
    Total Energy =                        -74.9698989202498467

Computation Completed


Properties will be evaluated at   0.000000,   0.000000,   0.000000 [a0]

Properties computed using the SCF density matrix


 Multipole Moments:

 ------------------------------------------------------------------------------------
     Multipole            Electronic (a.u.)      Nuclear  (a.u.)        Total (a.u.)
 ------------------------------------------------------------------------------------

 L = 1.  Multiply by 2.5417464519 to convert [e a0] to [Debye]
 Dipole X            :        -25.4276246           25.8283429            0.4007183
 Dipole Y            :         16.6092897          -16.1938531            0.4154366
 Dipole Z            :          0.6273867           -0.2188632            0.4085235
 Magnitude           :                                                    0.7071451

 ------------------------------------------------------------------------------------

*** tstop() called on pyra at Mon Feb 12 16:15:57 2024
Module time:
	user time   =       0.14 seconds =       0.00 minutes
	system time =       0.00 seconds =       0.00 minutes
	total time  =          0 seconds =       0.00 minutes
Total time:
	user time   =       0.60 seconds =       0.01 minutes
	system time =       0.01 seconds =       0.00 minutes
	total time  =          0 seconds =       0.00 minutes

    Psi4 stopped on: Monday, 12 February 2024 04:15PM
    Psi4 wall time for execution: 0:00:00.16


    -----------------------------------------------------------------------
          Psi4: An Open-Source Ab Initio Electronic Structure Package
                               Psi4 1.9 release

                         Git: Rev {} zzzzzzz 


    D. G. A. Smith, L. A. Burns, A. C. Simmonett, R. M. Parrish,
    M. C. Schieber, R. Galvelis, P. Kraus, H. Kruse, R. Di Remigio,
    A. Alenaizan, A. M. James, S. Lehtola, J. P. Misiewicz, M. Scheurer,
    R. A. Shaw, J. B. Schriber, Y. Xie, Z. L. Glick, D. A. Sirianni,
    J. S. O'Brien, J. M. Waldrop, A. Kumar, E. G. Hohenstein,
    B. P. Pritchard, B. R. Brooks, H. F. Schaefer III, A. Yu. Sokolov,
    K. Patkowski, A. E. DePrince III, U. Bozkaya, R. A. King,
    F. A. Evangelista, J. M. Turney, T. D. Crawford, C. D. Sherrill,
    J. Chem. Phys. 152(18) 184108 (2020). https://doi.org/10.1063/5.0006002

                            Additional Code Authors
    E. T. Seidl, C. L. Janssen, E. F. Valeev, M. L. Leininger,
    J. F. Gonthier, R. M. Richard, H. R. McAlexander, M. Saitow, X. Wang,
    P. Verma, M. H. Lechner, A. Jiang, S. Behnle, A. G. Heide,
    M. F. Herbst, and D. L. Poole

             Previous Authors, Complete List of Code Contributors,
                       and Citations for Specific Modules
    https://github.com/psi4/psi4/blob/master/codemeta.json
    https://github.com/psi4/psi4/graphs/contributors
    http://psicode.org/psi4manual/master/introduction.html#citing-psifour

    -----------------------------------------------------------------------


    Psi4 started on: Monday, 12 February 2024 04:15PM

    Process ID: 123522
    Host:       pyra
    PSIDATADIR: /mnt/optane/ben/miniconda3/envs/qcmanybody/share/psi4
    Memory:     500.0 MiB
    Threads:    1
    
  ==> Input QCSchema <==

--------------------------------------------------------------------------
{'driver': 'energy',
 'extras': {'psiapi': True, 'wfn_qcvars_only': True},
 'id': None,
 'keywords': {'CC_TYPE': 'DF', 'DF_BASIS_MP2': 'DEF2-QZVPP-RI', 'function_kwargs': {}},
 'model': {'basis': 'sto-3g', 'method': 'scf'},
 'molecule': {'atom_labels': ['', '', '', '', '', ''],
              'atomic_numbers': [8, 1, 1, 8, 1, 1],
              'extras': {},
              'fix_com': True,
              'fix_orientation': True,
              'fragment_charges': [0.0, 0.0],
              'fragment_multiplicities': [1, 1],
              'fragments': [[0, 1, 2], [3, 4, 5]],
              'geometry': [-2.763261453986384, -1.24533349520034, -0.13649253926231877, -1.1231071239863841,
                           -2.06383613520034, -0.03448486926231875, -3.807452833986384, -2.0886116852003402,
                           1.0788571907376814, 2.469716926013616, -1.75593382520034, -0.15297571926231876,
                           3.764153386013616, -2.2158104652003403, 1.0264141607376813, 2.306454086013616,
                           0.0694280147996599, -0.021471609262318753],
              'mass_numbers': [16, 1, 1, 16, 1, 1],
              'masses': [15.99491461957, 1.00782503223, 1.00782503223, 15.99491461957, 1.00782503223, 1.00782503223],
              'molecular_charge': 0.0,
              'molecular_multiplicity': 1,
              'name': 'h2o_trimer',
              'provenance': {'creator': 'QCElemental',
                             'routine': 'qcelemental.molparse.from_string',
                             'version': '0.27.1'},
              'real': [True, True, True, True, True, True],
              'schema_name': 'qcschema_molecule',
              'schema_version': 2,
              'symbols': ['O', 'H', 'H', 'O', 'H', 'H'],
              'validated': True},
 'protocols': {'stdout': True},
 'provenance': {'creator': 'QCElemental', 'routine': 'qcelemental.models.results', 'version': '0.27.1'},
 'schema_name': 'qcschema_input',
 'schema_version': 1}
--------------------------------------------------------------------------

Scratch directory: /tmp/
   => Libint2 <=

    Primary   basis highest AM E, G, H:  5, 4, 3
    Auxiliary basis highest AM E, G, H:  6, 5, 4
    Onebody   basis highest AM E, G, H:  6, 5, 4
    Solid Harmonics ordering:            gaussian

*** tstart() called on pyra
*** at Mon Feb 12 16:15:57 2024

   => Loading Basis Set <=

    Name: STO-3G
    Role: ORBITAL
    Keyword: BASIS
    atoms 1, 4     entry O          line    81 file /mnt/optane/ben/miniconda3/envs/qcmanybody/share/psi4/basis/sto-3g.gbs 
    atoms 2-3, 5-6 entry H          line    19 file /mnt/optane/ben/miniconda3/envs/qcmanybody/share/psi4/basis/sto-3g.gbs 


         ---------------------------------------------------------
                                   SCF
               by Justin Turney, Rob Parrish, Andy Simmonett
                          and Daniel G. A. Smith
                              RHF Reference
                        1 Threads,    500 MiB Core
         ---------------------------------------------------------

  ==> Geometry <==

    Molecular point group: c1
    Full point group: C1

    Geometry (in Bohr), charge = 0, multiplicity = 1:

       Center              X                  Y                   Z               Mass       
    ------------   -----------------  -----------------  -----------------  -----------------
         O           -2.763261453986    -1.245333495200    -0.136492539262    15.994914619570
         H           -1.123107123986    -2.063836135200    -0.034484869262     1.007825032230
         H           -3.807452833986    -2.088611685200     1.078857190738     1.007825032230
         O            2.469716926014    -1.755933825200    -0.152975719262    15.994914619570
         H            3.764153386014    -2.215810465200     1.026414160738     1.007825032230
         H            2.306454086014     0.069428014800    -0.021471609262     1.007825032230

  Running in c1 symmetry.

  Rotational constants: A =      0.67048  B =      0.23249  C =      0.17548 [cm^-1]
  Rotational constants: A =  20100.34686  B =   6969.84238  C =   5260.79778 [MHz]
  Nuclear repulsion =   37.327766624605843

  Charge       = 0
  Multiplicity = 1
  Electrons    = 20
  Nalpha       = 10
  Nbeta        = 10

  ==> Algorithm <==

  SCF Algorithm Type is DF.
  DIIS enabled.
  MOM disabled.
  Fractional occupation disabled.
  Guess Type is SAD.
  Energy threshold   = 1.00e-06
  Density threshold  = 1.00e-06
  Integral threshold = 1.00e-12

  ==> Primary Basis <==

  Basis Set: STO-3G
    Blend: STO-3G
    Number of shells: 10
    Number of basis functions: 14
    Number of Cartesian functions: 14
    Spherical Harmonics?: true
    Max angular momentum: 1

   => Loading Basis Set <=

    Name: (STO-3G AUX)
    Role: JKFIT
    Keyword: DF_BASIS_SCF
    atoms 1, 4     entry O          line   318 file /mnt/optane/ben/miniconda3/envs/qcmanybody/share/psi4/basis/def2-universal-jkfit.gbs 
    atoms 2-3, 5-6 entry H          line    18 file /mnt/optane/ben/miniconda3/envs/qcmanybody/share/psi4/basis/def2-universal-jkfit.gbs 

  ==> Integral Setup <==

  DFHelper Memory: AOs need 0.001 GiB; user supplied 0.366 GiB. 
  Using in-core AOs.

  ==> MemDFJK: Density-Fitted J/K Matrices <==

    J tasked:                   Yes
    K tasked:                   Yes
    wK tasked:                   No
    OpenMP threads:               1
    Memory [MiB]:               375
    Algorithm:                 Core
    Schwarz Cutoff:           1E-12
    Mask sparsity (%):       1.0204
    Fitting Condition:        1E-10

   => Auxiliary Basis Set <=

  Basis Set: (STO-3G AUX)
    Blend: DEF2-UNIVERSAL-JKFIT
    Number of shells: 74
    Number of basis functions: 226
    Number of Cartesian functions: 266
    Spherical Harmonics?: true
    Max angular momentum: 4

  Minimum eigenvalue in the overlap matrix is 3.4074143904E-01.
  Reciprocal condition number of the overlap matrix is 1.7130997866E-01.
    Using symmetric orthogonalization.

  ==> Pre-Iterations <==

  SCF Guess: Superposition of Atomic Densities via on-the-fly atomic UHF (no occupation information).

   -------------------------
    Irrep   Nso     Nmo    
   -------------------------
     A         14      14 
   -------------------------
    Total      14      14
   -------------------------

  ==> Iterations <==

                           Total Energy        Delta E     RMS |[F,P]|

   @DF-RHF iter SAD:  -148.42214055845307   -1.48422e+02   0.00000e+00 
   @DF-RHF iter   1:  -149.84240283209826   -1.42026e+00   2.37340e-02 ADIIS/DIIS
   @DF-RHF iter   2:  -149.93111317889566   -8.87103e-02   3.67265e-03 ADIIS/DIIS
   @DF-RHF iter   3:  -149.93291854620196   -1.80537e-03   8.94258e-04 ADIIS/DIIS
   @DF-RHF iter   4:  -149.93306594296837   -1.47397e-04   9.54279e-05 DIIS
   @DF-RHF iter   5:  -149.93306839980886   -2.45684e-06   2.53009e-05 DIIS
   @DF-RHF iter   6:  -149.93306858852497   -1.88716e-07   2.37923e-06 DIIS
   @DF-RHF iter   7:  -149.93306858990530   -1.38033e-09   2.69749e-07 DIIS
  Energy and wave function converged.


  ==> Post-Iterations <==

    Orbital Energies [Eh]
    ---------------------

    Doubly Occupied:                                                      

       1A    -20.265778     2A    -20.201128     3A     -1.286129  
       4A     -1.234946     5A     -0.640245     6A     -0.590711  
       7A     -0.474712     8A     -0.430649     9A     -0.397718  
      10A     -0.361497  

    Virtual:                                                              

      11A      0.564996    12A      0.653937    13A      0.715582  
      14A      0.790787  

    Final Occupation by Irrep:
              A 
    DOCC [    10 ]
    NA   [    10 ]
    NB   [    10 ]

  @DF-RHF Final Energy:  -149.93306858990530

   => Energetics <=

    Nuclear Repulsion Energy =             37.3277666246058430
    One-Electron Energy =                -282.7546339699495093
    Two-Electron Energy =                  95.4937987554383909
    Total Energy =                       -149.9330685899053037

Computation Completed


Properties will be evaluated at   0.000000,   0.000000,   0.000000 [a0]

Properties computed using the SCF density matrix


 Multipole Moments:

 ------------------------------------------------------------------------------------
     Multipole            Electronic (a.u.)      Nuclear  (a.u.)        Total (a.u.)
 ------------------------------------------------------------------------------------

 L = 1.  Multiply by 2.5417464519 to convert [e a0] to [Debye]
 Dipole X            :          1.9072059           -1.2083087            0.6988971
 Dipole Y            :         30.2156096          -30.3089688           -0.0933593
 Dipole Z            :          1.0717597           -0.2664312            0.8053285
 Magnitude           :                                                    1.0703865

 ------------------------------------------------------------------------------------

*** tstop() called on pyra at Mon Feb 12 16:15:58 2024
Module time:
	user time   =       0.11 seconds =       0.00 minutes
	system time =       0.00 seconds =       0.00 minutes
	total time  =          1 seconds =       0.02 minutes
Total time:
	user time   =       0.73 seconds =       0.01 minutes
	system time =       0.01 seconds =       0.00 minutes
	total time  =          1 seconds =       0.02 minutes

    Psi4 stopped on: Monday, 12 February 2024 04:15PM
    Psi4 wall time for execution: 0:00:00.12


    -----------------------------------------------------------------------
          Psi4: An Open-Source Ab Initio Electronic Structure Package
                               Psi4 1.9 release

                         Git: Rev {} zzzzzzz 


    D. G. A. Smith, L. A. Burns, A. C. Simmonett, R. M. Parrish,
    M. C. Schieber, R. Galvelis, P. Kraus, H. Kruse, R. Di Remigio,
    A. Alenaizan, A. M. James, S. Lehtola, J. P. Misiewicz, M. Scheurer,
    R. A. Shaw, J. B. Schriber, Y. Xie, Z. L. Glick, D. A. Sirianni,
    J. S. O'Brien, J. M. Waldrop, A. Kumar, E. G. Hohenstein,
    B. P. Pritchard, B. R. Brooks, H. F. Schaefer III, A. Yu. Sokolov,
    K. Patkowski, A. E. DePrince III, U. Bozkaya, R. A. King,
    F. A. Evangelista, J. M. Turney, T. D. Crawford, C. D. Sherrill,
    J. Chem. Phys. 152(18) 184108 (2020). https://doi.org/10.1063/5.0006002

                            Additional Code Authors
    E. T. Seidl, C. L. Janssen, E. F. Valeev, M. L. Leininger,
    J. F. Gonthier, R. M. Richard, H. R. McAlexander, M. Saitow, X. Wang,
    P. Verma, M. H. Lechner, A. Jiang, S. Behnle, A. G. Heide,
    M. F. Herbst, and D. L. Poole

             Previous Authors, Complete List of Code Contributors,
                       and Citations for Specific Modules
    https://github.com/psi4/psi4/blob/master/codemeta.json
    https://github.com/psi4/psi4/graphs/contributors
    http://psicode.org/psi4manual/master/introduction.html#citing-psifour

    -----------------------------------------------------------------------


    Psi4 started on: Monday, 12 February 2024 04:15PM

    Process ID: 123522
    Host:       pyra
    PSIDATADIR: /mnt/optane/ben/miniconda3/envs/qcmanybody/share/psi4
    Memory:     500.0 MiB
    Threads:    1
    
  ==> Input QCSchema <==

--------------------------------------------------------------------------
{'driver': 'energy',
 'extras': {'psiapi': True, 'wfn_qcvars_only': True},
 'id': None,
 'keywords': {'CC_TYPE': 'DF', 'DF_BASIS_MP2': 'DEF2-QZVPP-RI', 'function_kwargs': {}},
 'model': {'basis': 'sto-3g', 'method': 'scf'},
 'molecule': {'atom_labels': ['', '', '', '', '', ''],
              'atomic_numbers': [8, 1, 1, 8, 1, 1],
              'extras': {},
              'fix_com': True,
              'fix_orientation': True,
              'fragment_charges': [0.0, 0.0],
              'fragment_multiplicities': [1, 1],
              'fragments': [[0, 1, 2], [3, 4, 5]],
              'geometry': [2.469716926013616, -1.75593382520034, -0.15297571926231876, 3.764153386013616,
                           -2.2158104652003403, 1.0264141607376813, 2.306454086013616, 0.0694280147996599,
                           -0.021471609262318753, 0.29175008601361585, 3.0071998147996597, 0.22103827073768123,
                           -1.2120596939863841, 1.95665256479966, 0.12098636073768124, 0.10049127601361584,
                           4.2480247147996595, -1.0842676692623188],
              'mass_numbers': [16, 1, 1, 16, 1, 1],
              'masses': [15.99491461957, 1.00782503223, 1.00782503223, 15.99491461957, 1.00782503223, 1.00782503223],
              'molecular_charge': 0.0,
              'molecular_multiplicity': 1,
              'name': 'h2o_trimer',
              'provenance': {'creator': 'QCElemental',
                             'routine': 'qcelemental.molparse.from_string',
                             'version': '0.27.1'},
              'real': [True, True, True, True, True, True],
              'schema_name': 'qcschema_molecule',
              'schema_version': 2,
              'symbols': ['O', 'H', 'H', 'O', 'H', 'H'],
              'validated': True},
 'protocols': {'stdout': True},
 'provenance': {'creator': 'QCElemental', 'routine': 'qcelemental.models.results', 'version': '0.27.1'},
 'schema_name': 'qcschema_input',
 'schema_version': 1}
--------------------------------------------------------------------------

Scratch directory: /tmp/
   => Libint2 <=

    Primary   basis highest AM E, G, H:  5, 4, 3
    Auxiliary basis highest AM E, G, H:  6, 5, 4
    Onebody   basis highest AM E, G, H:  6, 5, 4
    Solid Harmonics ordering:            gaussian

*** tstart() called on pyra
*** at Mon Feb 12 16:15:58 2024

   => Loading Basis Set <=

    Name: STO-3G
    Role: ORBITAL
    Keyword: BASIS
    atoms 1, 4     entry O          line    81 file /mnt/optane/ben/miniconda3/envs/qcmanybody/share/psi4/basis/sto-3g.gbs 
    atoms 2-3, 5-6 entry H          line    19 file /mnt/optane/ben/miniconda3/envs/qcmanybody/share/psi4/basis/sto-3g.gbs 


         ---------------------------------------------------------
                                   SCF
               by Justin Turney, Rob Parrish, Andy Simmonett
                          and Daniel G. A. Smith
                              RHF Reference
                        1 Threads,    500 MiB Core
         ---------------------------------------------------------

  ==> Geometry <==

    Molecular point group: c1
    Full point group: C1

    Geometry (in Bohr), charge = 0, multiplicity = 1:

       Center              X                  Y                   Z               Mass       
    ------------   -----------------  -----------------  -----------------  -----------------
         O            2.469716926014    -1.755933825200    -0.152975719262    15.994914619570
         H            3.764153386014    -2.215810465200     1.026414160738     1.007825032230
         H            2.306454086014     0.069428014800    -0.021471609262     1.007825032230
         O            0.291750086014     3.007199814800     0.221038270738    15.994914619570
         H           -1.212059693986     1.956652564800     0.120986360738     1.007825032230
         H            0.100491276014     4.248024714800    -1.084267669262     1.007825032230

  Running in c1 symmetry.

  Rotational constants: A =      0.66182  B =      0.23463  C =      0.17636 [cm^-1]
  Rotational constants: A =  19840.76254  B =   7034.17541  C =   5287.25055 [MHz]
  Nuclear repulsion =   37.420872712481220

  Charge       = 0
  Multiplicity = 1
  Electrons    = 20
  Nalpha       = 10
  Nbeta        = 10

  ==> Algorithm <==

  SCF Algorithm Type is DF.
  DIIS enabled.
  MOM disabled.
  Fractional occupation disabled.
  Guess Type is SAD.
  Energy threshold   = 1.00e-06
  Density threshold  = 1.00e-06
  Integral threshold = 1.00e-12

  ==> Primary Basis <==

  Basis Set: STO-3G
    Blend: STO-3G
    Number of shells: 10
    Number of basis functions: 14
    Number of Cartesian functions: 14
    Spherical Harmonics?: true
    Max angular momentum: 1

   => Loading Basis Set <=

    Name: (STO-3G AUX)
    Role: JKFIT
    Keyword: DF_BASIS_SCF
    atoms 1, 4     entry O          line   318 file /mnt/optane/ben/miniconda3/envs/qcmanybody/share/psi4/basis/def2-universal-jkfit.gbs 
    atoms 2-3, 5-6 entry H          line    18 file /mnt/optane/ben/miniconda3/envs/qcmanybody/share/psi4/basis/def2-universal-jkfit.gbs 

  ==> Integral Setup <==

  DFHelper Memory: AOs need 0.001 GiB; user supplied 0.366 GiB. 
  Using in-core AOs.

  ==> MemDFJK: Density-Fitted J/K Matrices <==

    J tasked:                   Yes
    K tasked:                   Yes
    wK tasked:                   No
    OpenMP threads:               1
    Memory [MiB]:               375
    Algorithm:                 Core
    Schwarz Cutoff:           1E-12
    Mask sparsity (%):       1.0204
    Fitting Condition:        1E-10

   => Auxiliary Basis Set <=

  Basis Set: (STO-3G AUX)
    Blend: DEF2-UNIVERSAL-JKFIT
    Number of shells: 74
    Number of basis functions: 226
    Number of Cartesian functions: 266
    Spherical Harmonics?: true
    Max angular momentum: 4

  Minimum eigenvalue in the overlap matrix is 3.4063509175E-01.
  Reciprocal condition number of the overlap matrix is 1.7073707716E-01.
    Using symmetric orthogonalization.

  ==> Pre-Iterations <==

  SCF Guess: Superposition of Atomic Densities via on-the-fly atomic UHF (no occupation information).

   -------------------------
    Irrep   Nso     Nmo    
   -------------------------
     A         14      14 
   -------------------------
    Total      14      14
   -------------------------

  ==> Iterations <==

                           Total Energy        Delta E     RMS |[F,P]|

   @DF-RHF iter SAD:  -148.42275901183410   -1.48423e+02   0.00000e+00 
   @DF-RHF iter   1:  -149.84541804351113   -1.42266e+00   2.34649e-02 ADIIS/DIIS
   @DF-RHF iter   2:  -149.93239709883721   -8.69791e-02   3.66308e-03 ADIIS/DIIS
   @DF-RHF iter   3:  -149.93422966382150   -1.83256e-03   8.97641e-04 ADIIS/DIIS
   @DF-RHF iter   4:  -149.93437895742778   -1.49294e-04   9.47017e-05 DIIS
   @DF-RHF iter   5:  -149.93438133915748   -2.38173e-06   2.68359e-05 DIIS
   @DF-RHF iter   6:  -149.93438155130258   -2.12145e-07   2.29937e-06 DIIS
   @DF-RHF iter   7:  -149.93438155258440   -1.28182e-09   2.77283e-07 DIIS
  Energy and wave function converged.


  ==> Post-Iterations <==

    Orbital Energies [Eh]
    ---------------------

    Doubly Occupied:                                                      

       1A    -20.267820     2A    -20.198469     3A     -1.287836  
       4A     -1.233326     5A     -0.640430     6A     -0.591319  
       7A     -0.477995     8A     -0.431952     9A     -0.395682  
      10A     -0.360233  

    Virtual:                                                              

      11A      0.566153    12A      0.655627    13A      0.714252  
      14A      0.791629  

    Final Occupation by Irrep:
              A 
    DOCC [    10 ]
    NA   [    10 ]
    NB   [    10 ]

  @DF-RHF Final Energy:  -149.93438155258440

   => Energetics <=

    Nuclear Repulsion Energy =             37.4208727124812199
    One-Electron Energy =                -282.9403751368816984
    Two-Electron Energy =                  95.5851208718160734
    Total Energy =                       -149.9343815525843979

Computation Completed


Properties will be evaluated at   0.000000,   0.000000,   0.000000 [a0]

[...]
*** at Mon Feb 12 16:15:58 2024

   => Loading Basis Set <=

    Name: STO-3G
    Role: ORBITAL
    Keyword: BASIS
    atoms 1, 4, 7       entry O          line    81 file /mnt/optane/ben/miniconda3/envs/qcmanybody/share/psi4/basis/sto-3g.gbs 
    atoms 2-3, 5-6, 8-9 entry H          line    19 file /mnt/optane/ben/miniconda3/envs/qcmanybody/share/psi4/basis/sto-3g.gbs 


         ---------------------------------------------------------
                                   SCF
               by Justin Turney, Rob Parrish, Andy Simmonett
                          and Daniel G. A. Smith
                              RHF Reference
                        1 Threads,    500 MiB Core
         ---------------------------------------------------------

  ==> Geometry <==

    Molecular point group: c1
    Full point group: C1

    Geometry (in Bohr), charge = 0, multiplicity = 1:

       Center              X                  Y                   Z               Mass       
    ------------   -----------------  -----------------  -----------------  -----------------
         O           -2.763261453986    -1.245333495200    -0.136492539262    15.994914619570
         H           -1.123107123986    -2.063836135200    -0.034484869262     1.007825032230
         H           -3.807452833986    -2.088611685200     1.078857190738     1.007825032230
         O            2.469716926014    -1.755933825200    -0.152975719262    15.994914619570
         H            3.764153386014    -2.215810465200     1.026414160738     1.007825032230
         H            2.306454086014     0.069428014800    -0.021471609262     1.007825032230
      Gh(O)           0.291750086014     3.007199814800     0.221038270738    15.994914619570
      Gh(H)          -1.212059693986     1.956652564800     0.120986360738     1.007825032230
      Gh(H)           0.100491276014     4.248024714800    -1.084267669262     1.007825032230

  Running in c1 symmetry.

  Rotational constants: A =      0.23213  B =      0.22920  C =      0.11739 [cm^-1]
  Rotational constants: A =   6958.95982  B =   6871.15159  C =   3519.17461 [MHz]
  Nuclear repulsion =   37.327766624605843

  Charge       = 0
  Multiplicity = 1
  Electrons    = 20
  Nalpha       = 10
  Nbeta        = 10

  ==> Algorithm <==

  SCF Algorithm Type is DF.
  DIIS enabled.
  MOM disabled.
  Fractional occupation disabled.
  Guess Type is SAD.
  Energy threshold   = 1.00e-06
  Density threshold  = 1.00e-06
  Integral threshold = 1.00e-12

  ==> Primary Basis <==

  Basis Set: STO-3G
    Blend: STO-3G
    Number of shells: 15
    Number of basis functions: 21
    Number of Cartesian functions: 21
    Spherical Harmonics?: true
    Max angular momentum: 1

   => Loading Basis Set <=

    Name: (STO-3G AUX)
    Role: JKFIT
    Keyword: DF_BASIS_SCF
    atoms 1, 4, 7       entry O          line   318 file /mnt/optane/ben/miniconda3/envs/qcmanybody/share/psi4/basis/def2-universal-jkfit.gbs 
    atoms 2-3, 5-6, 8-9 entry H          line    18 file /mnt/optane/ben/miniconda3/envs/qcmanybody/share/psi4/basis/def2-universal-jkfit.gbs 

  ==> Integral Setup <==

  DFHelper Memory: AOs need 0.002 GiB; user supplied 0.366 GiB. 
  Using in-core AOs.

  ==> MemDFJK: Density-Fitted J/K Matrices <==

    J tasked:                   Yes
    K tasked:                   Yes
    wK tasked:                   No
    OpenMP threads:               1
    Memory [MiB]:               375
    Algorithm:                 Core
    Schwarz Cutoff:           1E-12
    Mask sparsity (%):       1.3605
    Fitting Condition:        1E-10

   => Auxiliary Basis Set <=

  Basis Set: (STO-3G AUX)
    Blend: DEF2-UNIVERSAL-JKFIT
    Number of shells: 111
    Number of basis functions: 339
    Number of Cartesian functions: 399
    Spherical Harmonics?: true
    Max angular momentum: 4

  Minimum eigenvalue in the overlap matrix is 3.3916085987E-01.
  Reciprocal condition number of the overlap matrix is 1.6340921935E-01.
    Using symmetric orthogonalization.

  ==> Pre-Iterations <==

  SCF Guess: Superposition of Atomic Densities via on-the-fly atomic UHF (no occupation information).

   -------------------------
    Irrep   Nso     Nmo    
   -------------------------
     A         21      21 
   -------------------------
    Total      21      21
   -------------------------

  ==> Iterations <==

                           Total Energy        Delta E     RMS |[F,P]|

   @DF-RHF iter SAD:  -148.42214207218646   -1.48422e+02   0.00000e+00 
   @DF-RHF iter   1:  -149.85190205587699   -1.42976e+00   1.57310e-02 ADIIS/DIIS
   @DF-RHF iter   2:  -149.93842595353374   -8.65239e-02   2.56698e-03 ADIIS/DIIS
   @DF-RHF iter   3:  -149.94038107417006   -1.95512e-03   6.19514e-04 ADIIS/DIIS
   @DF-RHF iter   4:  -149.94054554454326   -1.64470e-04   6.42488e-05 DIIS
   @DF-RHF iter   5:  -149.94054824287173   -2.69833e-06   9.91173e-06 DIIS
   @DF-RHF iter   6:  -149.94054830730866   -6.44369e-08   1.44043e-06 DIIS
   @DF-RHF iter   7:  -149.94054830835654   -1.04788e-09   2.53049e-07 DIIS
  Energy and wave function converged.


  ==> Post-Iterations <==

    Orbital Energies [Eh]
    ---------------------

    Doubly Occupied:                                                      

       1A    -20.265992     2A    -20.213835     3A     -1.286384  
       4A     -1.240805     5A     -0.640799     6A     -0.595401  
       7A     -0.475790     8A     -0.434446     9A     -0.400444  
      10A     -0.367649  

    Virtual:                                                              

      11A      0.490528    12A      0.607402    13A      0.648556  
      14A      0.734932    15A      0.785344    16A      1.032771  
      17A      1.373710    18A      2.556576    19A      2.950978  
      20A      3.280669    21A     31.265676  

    Final Occupation by Irrep:
              A 
    DOCC [    10 ]
    NA   [    10 ]
    NB   [    10 ]

  @DF-RHF Final Energy:  -149.94054830835654

   => Energetics <=

    Nuclear Repulsion Energy =             37.3277666246058430
    One-Electron Energy =                -282.6935379586183217
    Two-Electron Energy =                  95.4252230256559670
    Total Energy =                       -149.9405483083565400

Computation Completed


Properties will be evaluated at   0.000000,   0.000000,   0.000000 [a0]

Properties computed using the SCF density matrix


 Multipole Moments:

 ------------------------------------------------------------------------------------
     Multipole            Electronic (a.u.)      Nuclear  (a.u.)        Total (a.u.)
 ------------------------------------------------------------------------------------

 L = 1.  Multiply by 2.5417464519 to convert [e a0] to [Debye]
 Dipole X            :          1.8894866           -1.2083087            0.6811779
 Dipole Y            :         30.1601999          -30.3089688           -0.1487689
 Dipole Z            :          1.0762490           -0.2664312            0.8098178
 Magnitude           :                                                    1.0686161

 ------------------------------------------------------------------------------------

*** tstop() called on pyra at Mon Feb 12 16:15:58 2024
Module time:
	user time   =       0.15 seconds =       0.00 minutes
	system time =       0.00 seconds =       0.00 minutes
	total time  =          0 seconds =       0.00 minutes
Total time:
	user time   =       1.54 seconds =       0.03 minutes
	system time =       0.01 seconds =       0.00 minutes
	total time  =          1 seconds =       0.02 minutes

    Psi4 stopped on: Monday, 12 February 2024 04:15PM
    Psi4 wall time for execution: 0:00:00.16


    -----------------------------------------------------------------------
          Psi4: An Open-Source Ab Initio Electronic Structure Package
                               Psi4 1.9 release

                         Git: Rev {} zzzzzzz 


    D. G. A. Smith, L. A. Burns, A. C. Simmonett, R. M. Parrish,
    M. C. Schieber, R. Galvelis, P. Kraus, H. Kruse, R. Di Remigio,
    A. Alenaizan, A. M. James, S. Lehtola, J. P. Misiewicz, M. Scheurer,
    R. A. Shaw, J. B. Schriber, Y. Xie, Z. L. Glick, D. A. Sirianni,
    J. S. O'Brien, J. M. Waldrop, A. Kumar, E. G. Hohenstein,
    B. P. Pritchard, B. R. Brooks, H. F. Schaefer III, A. Yu. Sokolov,
    K. Patkowski, A. E. DePrince III, U. Bozkaya, R. A. King,
    F. A. Evangelista, J. M. Turney, T. D. Crawford, C. D. Sherrill,
    J. Chem. Phys. 152(18) 184108 (2020). https://doi.org/10.1063/5.0006002

                            Additional Code Authors
    E. T. Seidl, C. L. Janssen, E. F. Valeev, M. L. Leininger,
    J. F. Gonthier, R. M. Richard, H. R. McAlexander, M. Saitow, X. Wang,
    P. Verma, M. H. Lechner, A. Jiang, S. Behnle, A. G. Heide,
    M. F. Herbst, and D. L. Poole

             Previous Authors, Complete List of Code Contributors,
                       and Citations for Specific Modules
    https://github.com/psi4/psi4/blob/master/codemeta.json
    https://github.com/psi4/psi4/graphs/contributors
    http://psicode.org/psi4manual/master/introduction.html#citing-psifour

    -----------------------------------------------------------------------


    Psi4 started on: Monday, 12 February 2024 04:15PM

    Process ID: 123522
    Host:       pyra
    PSIDATADIR: /mnt/optane/ben/miniconda3/envs/qcmanybody/share/psi4
    Memory:     500.0 MiB
    Threads:    1
    
  ==> Input QCSchema <==

--------------------------------------------------------------------------
{'driver': 'energy',
 'extras': {'psiapi': True, 'wfn_qcvars_only': True},
 'id': None,
 'keywords': {'CC_TYPE': 'DF', 'DF_BASIS_MP2': 'DEF2-QZVPP-RI', 'function_kwargs': {}},
 'model': {'basis': 'sto-3g', 'method': 'scf'},
 'molecule': {'atom_labels': ['', '', '', '', '', ''],
              'atomic_numbers': [8, 1, 1, 8, 1, 1],
              'extras': {},
              'fix_com': True,
              'fix_orientation': True,
              'fragment_charges': [0.0, 0.0],
              'fragment_multiplicities': [1, 1],
              'fragments': [[0, 1, 2], [3, 4, 5]],
              'geometry': [-2.763261453986384, -1.24533349520034, -0.13649253926231877, -1.1231071239863841,
                           -2.06383613520034, -0.03448486926231875, -3.807452833986384, -2.0886116852003402,
                           1.0788571907376814, 0.29175008601361585, 3.0071998147996597, 0.22103827073768123,
                           -1.2120596939863841, 1.95665256479966, 0.12098636073768124, 0.10049127601361584,
                           4.2480247147996595, -1.0842676692623188],
              'mass_numbers': [16, 1, 1, 16, 1, 1],
              'masses': [15.99491461957, 1.00782503223, 1.00782503223, 15.99491461957, 1.00782503223, 1.00782503223],
              'molecular_charge': 0.0,
              'molecular_multiplicity': 1,
              'name': 'h2o_trimer',
              'provenance': {'creator': 'QCElemental',
                             'routine': 'qcelemental.molparse.from_string',
                             'version': '0.27.1'},
              'real': [True, True, True, True, True, True],
              'schema_name': 'qcschema_molecule',
              'schema_version': 2,
              'symbols': ['O', 'H', 'H', 'O', 'H', 'H'],
              'validated': True},
 'protocols': {'stdout': True},
 'provenance': {'creator': 'QCElemental', 'routine': 'qcelemental.models.results', 'version': '0.27.1'},
 'schema_name': 'qcschema_input',
 'schema_version': 1}
--------------------------------------------------------------------------

Scratch directory: /tmp/
   => Libint2 <=

    Primary   basis highest AM E, G, H:  5, 4, 3
    Auxiliary basis highest AM E, G, H:  6, 5, 4
    Onebody   basis highest AM E, G, H:  6, 5, 4
    Solid Harmonics ordering:            gaussian

*** tstart() called on pyra
*** at Mon Feb 12 16:15:58 2024

   => Loading Basis Set <=

    Name: STO-3G
    Role: ORBITAL
    Keyword: BASIS
    atoms 1, 4     entry O          line    81 file /mnt/optane/ben/miniconda3/envs/qcmanybody/share/psi4/basis/sto-3g.gbs 
    atoms 2-3, 5-6 entry H          line    19 file /mnt/optane/ben/miniconda3/envs/qcmanybody/share/psi4/basis/sto-3g.gbs 


         ---------------------------------------------------------
                                   SCF
               by Justin Turney, Rob Parrish, Andy Simmonett
                          and Daniel G. A. Smith
                              RHF Reference
                        1 Threads,    500 MiB Core
         ---------------------------------------------------------

  ==> Geometry <==

    Molecular point group: c1
    Full point group: C1

    Geometry (in Bohr), charge = 0, multiplicity = 1:

       Center              X                  Y                   Z               Mass       
    ------------   -----------------  -----------------  -----------------  -----------------
         O           -2.763261453986    -1.245333495200    -0.136492539262    15.994914619570
         H           -1.123107123986    -2.063836135200    -0.034484869262     1.007825032230
         H           -3.807452833986    -2.088611685200     1.078857190738     1.007825032230
         O            0.291750086014     3.007199814800     0.221038270738    15.994914619570
         H           -1.212059693986     1.956652564800     0.120986360738     1.007825032230
         H            0.100491276014     4.248024714800    -1.084267669262     1.007825032230

  Running in c1 symmetry.

  Rotational constants: A =      0.66279  B =      0.23433  C =      0.17639 [cm^-1]
  Rotational constants: A =  19869.84792  B =   7025.12195  C =   5288.12029 [MHz]
  Nuclear repulsion =   37.415382693305901

  Charge       = 0
  Multiplicity = 1
  Electrons    = 20
  Nalpha       = 10
  Nbeta        = 10

  ==> Algorithm <==

  SCF Algorithm Type is DF.
  DIIS enabled.
  MOM disabled.
  Fractional occupation disabled.
  Guess Type is SAD.
  Energy threshold   = 1.00e-06
  Density threshold  = 1.00e-06
  Integral threshold = 1.00e-12

  ==> Primary Basis <==

  Basis Set: STO-3G
    Blend: STO-3G
    Number of shells: 10
    Number of basis functions: 14
    Number of Cartesian functions: 14
    Spherical Harmonics?: true
    Max angular momentum: 1

   => Loading Basis Set <=

    Name: (STO-3G AUX)
    Role: JKFIT
    Keyword: DF_BASIS_SCF
    atoms 1, 4     entry O          line   318 file /mnt/optane/ben/miniconda3/envs/qcmanybody/share/psi4/basis/def2-universal-jkfit.gbs 
    atoms 2-3, 5-6 entry H          line    18 file /mnt/optane/ben/miniconda3/envs/qcmanybody/share/psi4/basis/def2-universal-jkfit.gbs 

  ==> Integral Setup <==

  DFHelper Memory: AOs need 0.001 GiB; user supplied 0.366 GiB. 
  Using in-core AOs.

  ==> MemDFJK: Density-Fitted J/K Matrices <==

    J tasked:                   Yes
    K tasked:                   Yes
    wK tasked:                   No
    OpenMP threads:               1
    Memory [MiB]:               375
    Algorithm:                 Core
    Schwarz Cutoff:           1E-12
    Mask sparsity (%):       1.0204
    Fitting Condition:        1E-10

   => Auxiliary Basis Set <=

  Basis Set: (STO-3G AUX)
    Blend: DEF2-UNIVERSAL-JKFIT
    Number of shells: 74
    Number of basis functions: 226
    Number of Cartesian functions: 266
    Spherical Harmonics?: true
    Max angular momentum: 4

  Minimum eigenvalue in the overlap matrix is 3.4069553340E-01.
  Reciprocal condition number of the overlap matrix is 1.7095996847E-01.
    Using symmetric orthogonalization.

  ==> Pre-Iterations <==

  SCF Guess: Superposition of Atomic Densities via on-the-fly atomic UHF (no occupation information).

   -------------------------
    Irrep   Nso     Nmo    
   -------------------------
     A         14      14 
   -------------------------
    Total      14      14
   -------------------------

  ==> Iterations <==

                           Total Energy        Delta E     RMS |[F,P]|

   @DF-RHF iter SAD:  -148.42342828979790   -1.48423e+02   0.00000e+00 
   @DF-RHF iter   1:  -149.84546993001635   -1.42204e+00   2.34575e-02 ADIIS/DIIS
   @DF-RHF iter   2:  -149.93239821737114   -8.69283e-02   3.65643e-03 ADIIS/DIIS
   @DF-RHF iter   3:  -149.93422088567340   -1.82267e-03   8.95726e-04 ADIIS/DIIS
   @DF-RHF iter   4:  -149.93436929274313   -1.48407e-04   9.43238e-05 DIIS
   @DF-RHF iter   5:  -149.93437168522649   -2.39248e-06   2.53241e-05 DIIS
   @DF-RHF iter   6:  -149.93437187347305   -1.88247e-07   2.29582e-06 DIIS
   @DF-RHF iter   7:  -149.93437187474873   -1.27568e-09   2.76267e-07 DIIS
  Energy and wave function converged.


  ==> Post-Iterations <==

    Orbital Energies [Eh]
    ---------------------

    Doubly Occupied:                                                      

       1A    -20.267572     2A    -20.197942     3A     -1.287847  
       4A     -1.232673     5A     -0.641232     6A     -0.590389  
       7A     -0.477963     8A     -0.430709     9A     -0.396328  
      10A     -0.359544  

    Virtual:                                                              

      11A      0.565402    12A      0.656605    13A      0.715036  
      14A      0.792872  

    Final Occupation by Irrep:
              A 
    DOCC [    10 ]
    NA   [    10 ]
    NB   [    10 ]

  @DF-RHF Final Energy:  -149.93437187474873

   => Energetics <=

    Nuclear Repulsion Energy =             37.4153826933059008
    One-Electron Energy =                -282.9350996099240092
    Two-Electron Energy =                  95.5853450418693740
    Total Energy =                       -149.9343718747487344

Computation Completed


Properties will be evaluated at   0.000000,   0.000000,   0.000000 [a0]

Properties computed using the SCF density matrix


 Multipole Moments:

 ------------------------------------------------------------------------------------
     Multipole            Electronic (a.u.)      Nuclear  (a.u.)        Total (a.u.)
 ------------------------------------------------------------------------------------

 L = 1.  Multiply by 2.5417464519 to convert [e a0] to [Debye]
 Dipole X            :         25.3817493          -25.8142193           -0.4324700
 Dipole Y            :        -16.7546574           16.1471600           -0.6074973
 Dipole Z            :         -0.7576073            0.7574569           -0.0001504
 Magnitude           :                                                    0.7457100

 ------------------------------------------------------------------------------------

*** tstop() called on pyra at Mon Feb 12 16:15:58 2024
Module time:
	user time   =       0.10 seconds =       0.00 minutes
	system time =       0.00 seconds =       0.00 minutes
	total time  =          0 seconds =       0.00 minutes
Total time:
	user time   =       1.66 seconds =       0.03 minutes
	system time =       0.01 seconds =       0.00 minutes
	total time  =          1 seconds =       0.02 minutes

    Psi4 stopped on: Monday, 12 February 2024 04:15PM
    Psi4 wall time for execution: 0:00:00.12


  //>>>>>>>>>>>>>>>>>>>>>>>>>>>>>>>>>>>//
  //          ManyBody Results         //
  //<<<<<<<<<<<<<<<<<<<<<<<<<<<<<<<<<<<//


   ==> N-Body: Counterpoise Corrected (CP) energies <==

        n-Body     Total Energy            Interaction Energy                          N-body Contribution to Interaction Energy
                   [Eh]                    [Eh]                  [kcal/mol]            [Eh]                  [kcal/mol]
             1     -224.890393543745        0.000000000000        0.000000000000        0.000000000000        0.000000000000
       RTN   2     -224.892193699400       -0.001800155655       -1.129614727941       -0.001800155655       -1.129614727941
      FULL   3        N/A                   N/A                   N/A                   N/A                   N/A                 


    Psi4 stopped on: Monday, 12 February 2024 04:15PM
    Psi4 wall time for execution: 0:00:02.92

*** Psi4 exiting successfully. Buy a developer a beer!
